Formula,Resist,Seebeck,T (K),average atomic volume,preparative route
La1.95Sr0.05CuO4,0.0158385,120.0,700.0,13.58035714,Solid state reaction (O2 atmosphere)
La1.95Sr0.05CuO4,0.019175599999999998,100.0,1000.0,13.58035714,Solid state reaction (O2 atmosphere)
La1.9Sr0.1CuO4,0.00280286,54.72,300.0,13.51428571,Solid state reaction (O2 atmosphere)
La1.9Sr0.1CuO4,0.00381517,50.0,400.0,13.51428571,Solid state reaction (O2 atmosphere)
La1.9Sr0.1CuO4,0.00608328,40.0,700.0,13.51428571,Solid state reaction (O2 atmosphere)
La1.9Sr0.1CuO4,0.00818462,30.0,1000.0,13.51428571,Solid state reaction (O2 atmosphere)
La1.85Sr0.15CuO4,0.00112686,25.0,300.0,13.57642857,Solid state reaction (O2 atmosphere)
La1.85Sr0.15CuO4,0.00148762,20.0,400.0,13.57642857,Solid state reaction (O2 atmosphere)
La1.85Sr0.15CuO4,0.00253868,2.0,700.0,13.57642857,Solid state reaction (O2 atmosphere)
La1.85Sr0.15CuO4,0.00376365,1.0,1000.0,13.57642857,Solid state reaction (O2 atmosphere)
La1.725Sr0.28CuO4,0.00047135,0.5,300.0,13.57642857,Solid state reaction (O2 atmosphere)
La1.725Sr0.28CuO4,0.000676029,0.1,400.0,13.57642857,Solid state reaction (O2 atmosphere)
La1.725Sr0.28CuO4,0.00136142,0.1,700.0,13.57642857,Solid state reaction (O2 atmosphere)
La1.725Sr0.28CuO4,0.00222519,0.1,1000.0,13.57642857,Solid state reaction (O2 atmosphere)
TlCr5Se8,0.013999999999999999,215.0,300.0,20.76035714,Solid state reaction
TlCr5Se8,0.016,240.0,400.0,20.76035714,Solid state reaction
TlCr5Se8,0.02,295.0,700.0,20.76035714,Solid state reaction
LiMn2O4,1886.12,-175.03099999999998,300.0,9.922142857,Solid state reaction (oxalates)
LiMn2O4,85.3104,-147.0,400.0,9.922142857,Solid state reaction (oxalates)
LiMn2O4,1.69095,-100.68,700.0,9.922142857,Solid state reaction (oxalates)
LiMn2O4,0.359618,-84.81,1000.0,9.922142857,Solid state reaction (oxalates)
CuFe0.9Cr0.1O2,0.107079,277.07599999999996,300.0,11.4125,Solid state reaction
CuFe0.9Cr0.1O2,0.0699656,299.003,400.0,11.4125,Solid state reaction
CuFe0.9Cr0.1O2,0.055702499999999995,321.42900000000003,700.0,11.4125,Solid state reaction
CuFe0.9Cr0.1O2,0.0532197,324.91700000000003,1000.0,11.4125,Solid state reaction
CuRh0.9Mg0.1O2,0.00179525,97.6744,300.0,11.71333333,Solid state reaction
CuRh0.9Mg0.1O2,0.0019370000000000001,115.116,400.0,11.71333333,Solid state reaction
CuRh0.9Mg0.1O2,0.00319853,145.515,700.0,11.71333333,Solid state reaction
CuRh0.9Mg0.1O2,0.00407907,167.94,1000.0,11.71333333,Solid state reaction
CuCr0.98Mg0.02O2,0.196666,300.0,300.0,10.92666667,Solid state reaction
CuCr0.98Mg0.02O2,0.119099,321.42900000000003,400.0,10.92666667,Solid state reaction
CuCr0.98Mg0.02O2,0.0865553,351.827,700.0,10.92666667,Solid state reaction
CuCr0.98Mg0.02O2,0.072125,354.81699999999995,1000.0,10.92666667,Solid state reaction
WO3,1402.658318,97.9094,300.0,13.216875,Solid state reaction
WO3,809.8083993,107.57799999999999,400.0,13.216875,Solid state reaction
WO3,108.48187209999999,124.82600000000001,700.0,13.216875,Solid state reaction
WO3,64.85589021,160.80100000000002,1000.0,13.216875,Solid state reaction
W0.99O2.97Co0.02O0.03,1246.791071,92.5958,300.0,13.216875,Solid state reaction
W0.99O2.97Co0.02O0.03,707.6990581,97.0383,400.0,13.216875,Solid state reaction
W0.99O2.97Co0.02O0.03,86.02520539,113.50200000000001,700.0,13.216875,Solid state reaction
W0.99O2.97Co0.02O0.03,36.42867811,113.93700000000001,1000.0,13.216875,Solid state reaction
W0.95O2.95Co0.1O0.15,114.491013,103.223,300.0,13.216875,Solid state reaction
W0.95O2.95Co0.1O0.15,99.41840235,106.01,400.0,13.216875,Solid state reaction
W0.95O2.95Co0.1O0.15,20.23705688,120.12200000000001,700.0,13.216875,Solid state reaction
W0.95O2.95Co0.1O0.15,15.89233894,125.61,1000.0,13.216875,Solid state reaction
W0.9O2.7Co0.2O0.3,561.0255547,103.833,300.0,13.216875,Solid state reaction
W0.9O2.7Co0.2O0.3,175.70801540000002,105.575,400.0,13.216875,Solid state reaction
W0.9O2.7Co0.2O0.3,52.08251954,121.603,700.0,13.216875,Solid state reaction
W0.9O2.7Co0.2O0.3,35.73279019,124.21600000000001,1000.0,13.216875,Solid state reaction
CaMnO3,0.302535,-650.91,300.0,10.3485,Solid state reaction
CaMnO3,0.24169000000000002,-587.185,400.0,10.3485,Solid state reaction
CaMnO3,0.103099,-362.325,700.0,10.3485,Solid state reaction
CaMnO3,0.0844,-282.21299999999997,1000.0,10.3485,Solid state reaction
CaYb0.05Mn0.95O3,0.00919163,-109.244,300.0,10.3485,Solid state reaction
CaYb0.05Mn0.95O3,0.0106095,-124.72,400.0,10.3485,Solid state reaction
CaYb0.05Mn0.95O3,0.0155708,-168.417,700.0,10.3485,Solid state reaction
CaYb0.05Mn0.95O3,0.0186642,-244.888,1000.0,10.3485,Solid state reaction
CaYb0.1Mn0.9O3,0.00389918,-52.8011,300.0,10.376,Solid state reaction
CaYb0.1Mn0.9O3,0.0043831,-60.083999999999996,400.0,10.376,Solid state reaction
CaYb0.1Mn0.9O3,0.00614631,-84.6639,700.0,10.376,Solid state reaction
CaYb0.1Mn0.9O3,0.00782461,-128.361,1000.0,10.376,Solid state reaction
CaYb0.15Mn0.85O3,0.00336145,-38.2353,300.0,10.376,Solid state reaction
CaYb0.15Mn0.85O3,0.00359065,-49.1597,400.0,10.376,Solid state reaction
CaYb0.15Mn0.85O3,0.00481615,-60.9944,700.0,10.376,Solid state reaction
CaYb0.15Mn0.85O3,0.00595672,-101.05,1000.0,10.376,Solid state reaction
CaYb0.4Mn0.6O3,0.015219899999999998,-9.103639999999999,300.0,10.376,Solid state reaction
CaYb0.4Mn0.6O3,0.012081200000000002,-20.028,400.0,10.376,Solid state reaction
CaYb0.4Mn0.6O3,0.0106181,-50.9804,700.0,10.376,Solid state reaction
CaYb0.4Mn0.6O3,0.0110794,-25.4902,1000.0,10.376,Solid state reaction
In2O3,0.0135192,-156.078,300.0,12.943875,solid state reaction
In2O3,0.014948699999999999,-172.722,400.0,12.943875,solid state reaction
In2O3,0.0194842,-202.21900000000002,700.0,12.943875,solid state reaction
In2O3,0.0229674,-222.736,1000.0,12.943875,solid state reaction
In1.998Ge0.002O3,0.00210578,-88.5671,300.0,12.943875,solid state reaction
In1.998Ge0.002O3,0.0023498,-105.83200000000001,400.0,12.943875,solid state reaction
In1.998Ge0.002O3,0.00337115,-146.168,700.0,12.943875,solid state reaction
In1.998Ge0.002O3,0.0044954999999999995,-177.832,1000.0,12.943875,solid state reaction
In1.994Ge0.006O3,0.000836795,-50.4768,300.0,12.943875,solid state reaction
In1.994Ge0.006O3,0.000942337,-62.4767,400.0,12.943875,solid state reaction
In1.994Ge0.006O3,0.00129155,-94.1419,700.0,12.943875,solid state reaction
In1.994Ge0.006O3,0.00168341,-119.305,1000.0,12.943875,solid state reaction
In1.985Ge0.015O3,0.000722981,-46.7607,300.0,12.943875,solid state reaction
In1.985Ge0.015O3,0.0008178969999999999,-56.5928,400.0,12.943875,solid state reaction
In1.985Ge0.015O3,0.00113128,-83.3032,700.0,12.943875,solid state reaction
In1.985Ge0.015O3,0.00143465,-108.464,1000.0,12.943875,solid state reaction
In1.94Ge0.06O3,0.0008961510000000001,-50.7871,300.0,12.943875,solid state reaction
In1.94Ge0.06O3,0.000995442,-60.6186,400.0,12.943875,solid state reaction
In1.94Ge0.06O3,0.00139586,-88.5677,700.0,12.943875,solid state reaction
In1.94Ge0.06O3,0.00177828,-114.96700000000001,1000.0,12.943875,solid state reaction
In1.9Ge0.1O3,0.00132139,-53.2639,300.0,12.943875,solid state reaction
In1.9Ge0.1O3,0.00143465,-65.5729,400.0,12.943875,solid state reaction
In1.9Ge0.1O3,0.0017301999999999999,-93.2129,700.0,12.943875,solid state reaction
In1.9Ge0.1O3,0.00208663,-117.444,1000.0,12.943875,solid state reaction
In1.8Ge0.2O3,0.00287298,-52.3343,300.0,12.943875,solid state reaction
In1.8Ge0.2O3,0.0027953,-64.0245,400.0,12.943875,solid state reaction
In1.8Ge0.2O3,0.00243728,-86.4,700.0,12.943875,solid state reaction
In1.8Ge0.2O3,0.00267047,-110.012,1000.0,12.943875,solid state reaction
LaCoO3,7.717915156,-390.0,300.0,11.1365,solid state reaction
LaCoO3,0.38388399,140.3,400.0,11.1365,solid state reaction
LaCoO3,0.0013583129999999999,28.76,700.0,11.1365,solid state reaction
LaCoO3,0.0009840110000000001,15.7,1000.0,11.1365,solid state reaction
La0.99Sr0.01CoO3,0.15703628,395.0,300.0,11.1365,solid state reaction
La0.99Sr0.01CoO3,0.074131024,304.0,400.0,11.1365,solid state reaction
La0.99Sr0.01CoO3,0.001230269,32.48,700.0,11.1365,solid state reaction
La0.99Sr0.01CoO3,0.000950605,18.56,1000.0,11.1365,solid state reaction
La0.98Sr0.02CoO3,0.069183097,330.0,300.0,11.1365,solid state reaction
La0.98Sr0.02CoO3,0.033806484,243.5,400.0,11.1365,solid state reaction
La0.98Sr0.02CoO3,0.0010964780000000001,28.76,700.0,11.1365,solid state reaction
La0.98Sr0.02CoO3,0.00091622,17.6,1000.0,11.1365,solid state reaction
La0.95Sr0.05CoO3,0.015958791,214.7,300.0,11.1475,solid state reaction
La0.95Sr0.05CoO3,0.007277798,129.0,400.0,11.1475,solid state reaction
La0.95Sr0.05CoO3,0.0009495110000000001,25.04,700.0,11.1475,solid state reaction
La0.95Sr0.05CoO3,0.0008317639999999999,14.8,1000.0,11.1475,solid state reaction
La0.8Sr0.2CoO3,0.000467735,21.32,300.0,11.21,solid state reaction
La0.8Sr0.2CoO3,0.00044668400000000004,17.6,400.0,11.21,solid state reaction
La0.8Sr0.2CoO3,0.000498884,10.17,700.0,11.21,solid state reaction
La0.8Sr0.2CoO3,0.000597035,5.52,1000.0,11.21,solid state reaction
Yb14MnSb11,0.00203961,56.4516,300.0,29.12947115,"flux (Sn), Ar"
Yb14MnSb11,0.00232311,68.7334,400.0,29.12947115,"flux (Sn), Ar"
Yb14MnSb11,0.0034631999999999996,117.242,700.0,29.12947115,"flux (Sn), Ar"
Yb14MnSb11,0.00457917,164.143,1000.0,29.12947115,"flux (Sn), Ar"
Zn4Sb3,0.00210707,110.866,300.0,25.56571429,"melted, inert"
Zn4Sb3,0.00258969,146.015,400.0,25.56571429,"melted, inert"
Zn4Sb3,0.00332511,205.872,700.0,25.56571429,"melted, inert"
CeFe2Co2Sb12,0.00391,126.0,300.0,21.97058824,combination of melting and powder metallurgy techniques
CeFe2Co2Sb12,0.00385,154.0,400.0,21.97058824,combination of melting and powder metallurgy techniques
CeFe2Co2Sb12,0.00325,166.0,700.0,21.97058824,combination of melting and powder metallurgy techniques
CeFe3CoSb12,0.00103,101.0,300.0,22.25911765,combination of melting and powder metallurgy techniques
CeFe3CoSb12,0.00112,127.0,400.0,22.25911765,combination of melting and powder metallurgy techniques
CeFe3CoSb12,0.0012900000000000001,176.0,700.0,22.25911765,combination of melting and powder metallurgy techniques
CeFe3.5Co0.5Sb12,0.000893,87.2,300.0,22.25911765,combination of melting and powder metallurgy techniques
CeFe3.5Co0.5Sb13,0.0009710000000000001,107.0,400.0,22.25911765,combination of melting and powder metallurgy techniques
CeFe3.5Co0.5Sb14,0.00107,158.0,700.0,22.25911765,combination of melting and powder metallurgy techniques
CeFe4Sb12,0.000771,58.2,300.0,22.42647059,combination of melting and powder metallurgy techniques
CeFe4Sb12,0.0008359999999999999,75.7,400.0,22.42647059,combination of melting and powder metallurgy techniques
CeFe4Sb12,0.000886,127.0,700.0,22.42647059,combination of melting and powder metallurgy techniques
AgCrSe2,0.044546300000000004,279.207,300.0,20.74166667,"solid state reaction, sealed"
AgCrSe2,0.0402203,300.119,400.0,20.74166667,"solid state reaction, sealed"
AgCrSe2,0.032860400000000005,306.69599999999997,700.0,20.74166667,"solid state reaction, sealed"
Zn0.9975Al0.0025O,0.0511002,-132.097,300.0,11.905,"solid state reaction, vacuum"
Zn0.9975Al0.0025O,0.050471499999999996,-135.054,400.0,11.905,"solid state reaction, vacuum"
Zn0.9975Al0.0025O,0.041277,-180.753,700.0,11.905,"solid state reaction, vacuum"
Zn0.9975Al0.0025O,0.023909599999999996,-218.521,1000.0,11.905,"solid state reaction, vacuum"
Zn0.995Al0.005O,0.015108100000000001,-115.43,300.0,11.905,"solid state reaction, vacuum"
Zn0.995Al0.005O,0.0150295,-128.468,400.0,11.905,"solid state reaction, vacuum"
Zn0.995Al0.005O,0.0154224,-162.876,700.0,11.905,"solid state reaction, vacuum"
Zn0.995Al0.005O,0.010943000000000001,-204.67700000000002,1000.0,11.905,"solid state reaction, vacuum"
Zn0.9925Al0.0075O,0.010314299999999998,-113.95200000000001,300.0,11.905,"solid state reaction, vacuum"
Zn0.9925Al0.0075O,0.010314299999999998,-123.495,400.0,11.905,"solid state reaction, vacuum"
Zn0.9925Al0.0075O,0.011100200000000001,-154.543,700.0,11.905,"solid state reaction, vacuum"
Zn0.9925Al0.0075O,0.00952849,-187.87599999999998,1000.0,11.905,"solid state reaction, vacuum"
Zn0.99Al0.01O,0.006778,-110.995,300.0,11.905,"solid state reaction, vacuum"
Zn0.99Al0.01O,0.00709234,-117.177,400.0,11.905,"solid state reaction, vacuum"
Zn0.99Al0.01O,0.00795678,-147.016,700.0,11.905,"solid state reaction, vacuum"
Zn0.99Al0.01O,0.00772102,-175.78,1000.0,11.905,"solid state reaction, vacuum"
Zn0.97Al0.03O,0.0213949,-144.866,300.0,11.905,"solid state reaction, vacuum"
Zn0.97Al0.03O,0.021473500000000003,-149.839,400.0,11.905,"solid state reaction, vacuum"
Zn0.97Al0.03O,0.022102200000000002,-177.52700000000002,700.0,11.905,"solid state reaction, vacuum"
Zn0.97Al0.03O,0.0170727,-207.5,1000.0,11.905,"solid state reaction, vacuum"
SrMn0.98Mo0.02O3,0.0257653,-80.5607,300.0,11.7425,"solid state reaction, air"
SrMn0.98Mo0.02O3,0.0260503,-73.8318,400.0,11.7425,"solid state reaction, air"
SrMn0.98Mo0.02O3,0.0335085,-58.3178,700.0,11.7425,"solid state reaction, air"
SrMn0.98Mo0.02O3,0.03553630000000001,-40.1869,1000.0,11.7425,"solid state reaction, air"
SrMn0.96Mo0.04O3,0.015401900000000001,-110.28,300.0,11.7425,"solid state reaction, air"
SrMn0.96Mo0.04O3,0.0151768,-105.04700000000001,400.0,11.7425,"solid state reaction, air"
SrMn0.96Mo0.04O3,0.0173875,-88.5981,700.0,11.7425,"solid state reaction, air"
SrMn0.96Mo0.04O3,0.0229475,-74.3925,1000.0,11.7425,"solid state reaction, air"
Sm1.7Ca0.3MnO3,0.24887600000000001,69.4361,300.0,10.9565,"solid state reaction, air"
Sm0.5Ca0.5MnO3,0.00955255,-32.5663,300.0,10.9565,"solid state reaction, air"
CaMnO3,0.0285342,-357.564,300.0,10.3485,"solid state reaction, air"
ZrNi1.98Cu0.02Sn,0.00105,-133.0,300.0,19.03666667,"arc melted, Ar"
ZrNi1.98Cu0.02Sn,0.00117,-136.0,400.0,19.03666667,"arc melted, Ar"
ZrNi0.76Co0.004Cu0.2Sn,0.008759999999999999,-95.0,300.0,19.03666667,"arc melted, Ar"
ZrNi0.76Co0.004Cu0.2Sn,0.00695,-130.0,400.0,19.03666667,"arc melted, Ar"
ZrNiSn0.98Sb0.02,0.000598,-113.0,300.0,19.03666667,"arc melted, Ar"
ZrNiSn0.98Sb0.02,0.000624,-137.0,400.0,19.03666667,"arc melted, Ar"
Zr0.94Y0.06NiSn0.96Sb0.04,0.000771,-92.0,300.0,19.03666667,"arc melted, Ar"
Zr0.94Y0.06NiSn0.96Sb0.04,0.000788,-109.0,400.0,19.03666667,"arc melted, Ar"
NbCoSn,0.00122831,-119.18799999999999,300.0,17.57166667,Floating zone melting
NbCoSn,0.00141493,-137.005,400.0,17.57166667,Floating zone melting
NbCoSn,0.00203039,-168.074,700.0,17.57166667,Floating zone melting
NbCoSn,0.00259029,-177.53,1000.0,17.57166667,Floating zone melting
NbCo1.05Sn,0.00137411,-163.441,300.0,17.57166667,Floating zone melting
NbCo1.05Sn,0.0016302,-185.373,400.0,17.57166667,Floating zone melting
NbCo1.05Sn,0.00233598,-236.77200000000002,700.0,17.57166667,Floating zone melting
NbCo1.05Sn,0.00297916,-250.86,1000.0,17.57166667,Floating zone melting
NbCo1.10Sn,0.00111024,-130.766,300.0,17.57166667,Floating zone melting
NbCo1.10Sn,0.00129687,-151.928,400.0,17.57166667,Floating zone melting
NbCo1.10Sn,0.0018429000000000002,-189.172,700.0,17.57166667,Floating zone melting
NbCo1.10Sn,0.00242362,-199.4,1000.0,17.57166667,Floating zone melting
NbCo2Sn,0.000147,-18.17146,300.0,,
Bi92Sb8,0.000160849,-81.3,300.0,32.59833333,"melted, vacuum"
Bi92Sb8,0.000155432,-69.3,400.0,32.59833333,"melted, vacuum"
Bi90Sb10,0.000182312,-80.8,300.0,32.59833333,"melted, vacuum"
Bi90Sb10,0.00018076099999999999,-68.5,400.0,32.59833333,"melted, vacuum"
Bi88Sb12,0.000172072,-85.3,300.0,32.59833333,"melted, vacuum"
Bi88Sb12,0.000167887,-72.9,400.0,32.59833333,"melted, vacuum"
Bi86Sb14,0.000256248,-81.3,300.0,32.59833333,"melted, vacuum"
Bi86Sb14,0.000292608,-69.1,400.0,32.59833333,"melted, vacuum"
Bi83Sb17,0.000259558,-75.2,300.0,32.59833333,"melted, vacuum"
Bi83Sb17,0.000285183,-61.6,400.0,32.59833333,"melted, vacuum"
CaMn7O12,0.08931,8.02541,700.0,9.981833332999999,"solid state reaction, air"
CaMn7O12,0.040500699999999994,-20.1644,1000.0,9.981833332999999,"solid state reaction, air"
CaMn6.5Cu0.5O12,0.513021,32.5598,300.0,9.981833332999999,"solid state reaction, air"
CaMn6.5Cu0.5O12,0.17263399999999998,9.29006,400.0,9.981833332999999,"solid state reaction, air"
CaMn6.5Cu0.5O12,0.0500867,-15.3459,700.0,9.981833332999999,"solid state reaction, air"
CaMn6.5Cu0.5O12,0.0281389,-24.3591,1000.0,9.981833332999999,"solid state reaction, air"
CaMn6CuO12,0.247652,-13.1349,300.0,9.981833332999999,"solid state reaction, air"
CaMn6CuO12,0.10105700000000001,-19.922,400.0,9.981833332999999,"solid state reaction, air"
CaMn6CuO12,0.0326349,-27.3305,700.0,9.981833332999999,"solid state reaction, air"
CaMn6CuO12,0.0204067,-30.2012,1000.0,9.981833332999999,"solid state reaction, air"
LiMn2O4,1720.91,-55.6808,300.0,9.922142857,"solid state reaction, air"
LiMn2O4,74.0928,-45.9919,400.0,9.922142857,"solid state reaction, air"
LiMn2O4,1.1673200000000001,-30.1768,700.0,9.922142857,"solid state reaction, air"
LiMn2O4,0.261071,-19.4145,1000.0,9.922142857,"solid state reaction, air"
Pr0.5Ca0.5MnO3,0.0552875,-22.2738,300.0,11.095999999999998,"solid state reaction, air"
Pr0.5Ca0.5MnO3,0.029806700000000002,-22.7685,400.0,11.095999999999998,"solid state reaction, air"
Pr0.5Ca0.5MnO3,0.0160953,-23.4352,700.0,11.095999999999998,"solid state reaction, air"
Pr0.5Ca0.5MnO3,0.012738600000000001,-23.7587,1000.0,11.095999999999998,"solid state reaction, air"
Mo3Te4,0.000711,4.08735,300.0,24.75642857,"solid state reaction, vacuum"
Mo3Te4,0.00072,7.5098899999999995,400.0,24.75642857,"solid state reaction, vacuum"
Mo3Te4,0.000715,16.5599,700.0,24.75642857,"solid state reaction, vacuum"
Mo3Te4,0.000723,23.9118,1000.0,24.75642857,"solid state reaction, vacuum"
Mo6Te7S,0.000767,3.34933,300.0,24.75642857,"solid state reaction, vacuum"
Mo6Te7S,0.0007830000000000001,5.48011,400.0,24.75642857,"solid state reaction, vacuum"
Mo6Te7S,0.000817,13.9768,700.0,24.75642857,"solid state reaction, vacuum"
Mo6Te7S,0.000833,21.1078,1000.0,24.75642857,"solid state reaction, vacuum"
Mo6Te6S2,0.000857,6.30124,300.0,24.75642857,"solid state reaction, vacuum"
Mo6Te6S2,0.0008869999999999999,8.06322,400.0,24.75642857,"solid state reaction, vacuum"
Mo6Te6S2,0.0009460000000000001,11.6892,700.0,24.75642857,"solid state reaction, vacuum"
Mo6Te6S2,0.001,14.6136,1000.0,24.75642857,"solid state reaction, vacuum"
CuRh0.9Mg0.1O2,0.00248814,138.814,300.0,11.71333333,"solid state reaction, air"
CuRh0.9Mg0.1O2,0.00270088,153.007,400.0,11.71333333,"solid state reaction, air"
CuRh0.9Mg0.1O2,0.00392099,203.02700000000002,700.0,11.71333333,"solid state reaction, air"
CuRh0.9Mg0.1O2,0.00552975,265.993,1000.0,11.71333333,"solid state reaction, air"
Sr2Ti0.8Nb0.2O4,0.004761905,-53.6,300.0,13.35714286,"solid state reaction, Ar"
Sr2Ti0.8Nb0.2O4,0.0056689340000000005,-67.6,400.0,13.35714286,"solid state reaction, Ar"
Sr2Ti0.8Nb0.2O4,0.008654262,-110.3,700.0,13.35714286,"solid state reaction, Ar"
Sr2Ti0.8Nb0.2O4,0.013333333000000001,-167.0,1000.0,13.35714286,"solid state reaction, Ar"
Sr3Ti1.6Nb0.4O7,0.0018587360000000002,-42.4,300.0,12.70833333,"solid state reaction, Ar"
Sr3Ti1.6Nb0.4O7,0.002173913,-57.16,400.0,12.70833333,"solid state reaction, Ar"
Sr3Ti1.6Nb0.4O7,0.004291845,-98.3,700.0,12.70833333,"solid state reaction, Ar"
Sr3Ti1.6Nb0.4O7,0.0078125,-158.0,1000.0,12.70833333,"solid state reaction, Ar"
SrTi0.8Nb0.2O3,0.001451379,-52.14,300.0,12.0315,"solid state reaction, Ar"
SrTi0.8Nb0.2O3,0.001420455,-62.4,400.0,12.0315,"solid state reaction, Ar"
SrTi0.8Nb0.2O3,0.001709402,-110.0,700.0,12.0315,"solid state reaction, Ar"
SrTi0.8Nb0.2O3,0.002564103,-164.9,1000.0,12.0315,"solid state reaction, Ar"
Sr0.95La0.05TiO3,0.007013213000000001,-167.0,300.0,11.966,"solid state reaction, Ar"
Sr0.95La0.05TiO3,0.004427365,-188.0,400.0,11.966,"solid state reaction, Ar"
Sr0.95La0.05TiO3,0.009176669,-251.0,700.0,11.966,"solid state reaction, Ar"
Sr0.95La0.05TiO3,0.018325859,-285.0,1000.0,11.966,"solid state reaction, Ar"
Sr0.9La0.1TiO3,0.002614215,-97.6,300.0,11.966,"solid state reaction, Ar"
Sr0.9La0.1TiO3,0.001650323,-115.0,400.0,11.966,"solid state reaction, Ar"
Sr0.9La0.1TiO3,0.0036589290000000004,-179.0,700.0,11.966,"solid state reaction, Ar"
Sr0.9La0.1TiO3,0.007932541999999999,-221.0,1000.0,11.966,"solid state reaction, Ar"