Formula,Resist,Seebeck,T (K),preparative route
CaMnO3,50.0,-462.97,300.0,Solid state reaction
CaMnO3,50.0,-462.97,400.0,Solid state reaction
CaMnO3,50.0,-462.97,700.0,Solid state reaction
CaMnO3,50.0,-462.97,1000.0,Solid state reaction
Ca0.98La0.02MnO3,0.046114999999999996,-201.71,300.0,Solid state reaction
Ca0.98La0.02MnO3,0.046114999999999996,-201.71,400.0,Solid state reaction
Ca0.98La0.02MnO3,0.046114999999999996,-201.71,700.0,Solid state reaction
Ca0.98La0.02MnO3,0.046114999999999996,-201.71,1000.0,Solid state reaction
Ca0.96La0.04MnO3,0.015256,-123.59,300.0,Solid state reaction
Ca0.96La0.04MnO3,0.015256,-123.59,400.0,Solid state reaction
Ca0.96La0.04MnO3,0.015256,-123.59,700.0,Solid state reaction
Ca0.96La0.04MnO3,0.015256,-123.59,1000.0,Solid state reaction
Ca0.94La0.06MnO3,0.012167,-103.74,300.0,Solid state reaction
Ca0.94La0.06MnO3,0.012167,-103.74,400.0,Solid state reaction
Ca0.94La0.06MnO3,0.012167,-103.74,700.0,Solid state reaction
Ca0.94La0.06MnO3,0.012167,-103.74,1000.0,Solid state reaction
Ca0.92La0.08MnO3,0.009966,-83.24,300.0,Solid state reaction
Ca0.92La0.08MnO3,0.009966,-83.24,400.0,Solid state reaction
Ca0.92La0.08MnO3,0.009966,-83.24,700.0,Solid state reaction
Ca0.92La0.08MnO3,0.009966,-83.24,1000.0,Solid state reaction
NiO,,,700.0,Solid state reaction
NiO,,,1000.0,Solid state reaction
Li0.0024Ni0.9976O,28.867694,294.97,400.0,Solid state reaction
Li0.0024Ni0.9976O,28.867694,294.97,700.0,Solid state reaction
Li0.0024Ni0.9976O,28.867694,294.97,1000.0,Solid state reaction
Li0.0066Ni0.9944O,5.086469999999999,249.37,400.0,Solid state reaction
Li0.0066Ni0.9944O,5.086469999999999,249.37,700.0,Solid state reaction
Li0.0066Ni0.9944O,5.086469999999999,249.37,1000.0,Solid state reaction
Li0.0184Ni0.9816O,0.064272,116.91,400.0,Solid state reaction
Li0.0184Ni0.9816O,0.064272,116.91,700.0,Solid state reaction
Li0.0184Ni0.9816O,0.064272,116.91,1000.0,Solid state reaction
Li0.0242Ni0.9758O,0.012343000000000002,102.59,400.0,Solid state reaction
Li0.0242Ni0.9758O,0.012343000000000002,102.59,700.0,Solid state reaction
Li0.0242Ni0.9758O,0.012343000000000002,102.59,1000.0,Solid state reaction
CaMnO3,2.925075,-549.12,300.0,Solid state reaction
CaMnO3,2.925075,-549.12,400.0,Solid state reaction
CaMnO3,2.925075,-549.12,700.0,Solid state reaction
CaMnO3,2.925075,-549.12,1000.0,Solid state reaction
Ca0.98Bi0.02Mn0.98Nb0.02O3,0.021537,-119.21,300.0,Solid state reaction
Ca0.98Bi0.02Mn0.98Nb0.02O3,0.021537,-119.21,400.0,Solid state reaction
Ca0.98Bi0.02Mn0.98Nb0.02O3,0.021537,-119.21,700.0,Solid state reaction
Ca0.98Bi0.02Mn0.98Nb0.02O3,0.021537,-119.21,1000.0,Solid state reaction
Ca0.96Bi0.04Mn0.96Nb0.04O3,0.009824,-114.15,300.0,Solid state reaction
Ca0.96Bi0.04Mn0.96Nb0.04O3,0.009824,-114.15,400.0,Solid state reaction
Ca0.96Bi0.04Mn0.96Nb0.04O3,0.009824,-114.15,700.0,Solid state reaction
Ca0.9Bi0.1Mn0.9Nb0.1O3,0.009824,-114.15,1000.0,Solid state reaction
Ca0.9Bi0.1Mn0.9Nb0.1O3,0.007258,-72.44,300.0,Solid state reaction
Ca0.9Bi0.1Mn0.9Nb0.1O3,0.007258,-72.44,400.0,Solid state reaction
Ca0.9Bi0.1Mn0.9Nb0.1O3,0.007258,-72.44,700.0,Solid state reaction
Ca0.9Bi0.1Mn0.9Nb0.1O3,0.007258,-72.44,1000.0,Solid state reaction
CaMn0.98Nb0.02O3,0.0215409,-203.88,300.0,Ultrasonic Spray Pyrolysis
CaMn0.98Nb0.02O3,0.021541,-203.88,400.0,Ultrasonic Spray Pyrolysis
CaMn0.98Nb0.02O3,0.021541,-203.88,700.0,Ultrasonic Spray Pyrolysis
CaMn0.98Nb0.02O3,0.021541,-203.88,1000.0,Ultrasonic Spray Pyrolysis
CaMn0.98Ru0.02O3,0.018369999999999997,-153.66,400.0,Solid state reaction
CaMn0.98Ru0.02O3,0.018366,-153.66,700.0,Solid state reaction
CaMn0.98Ru0.02O3,0.018366,-153.66,1000.0,Solid state reaction
CaMn0.96Ru0.04O3,0.007520999999999999,-119.99,400.0,Solid state reaction
CaMn0.96Ru0.04O3,0.007520999999999999,-119.99,700.0,Solid state reaction
CaMn0.96Ru0.04O3,0.007520999999999999,-119.99,1000.0,Solid state reaction
CaMn0.94Ru0.06O3,0.006601999999999999,-101.6,400.0,Solid state reaction
CaMn0.94Ru0.06O3,0.006601999999999999,-101.6,700.0,Solid state reaction
CaMn0.94Ru0.06O3,0.006601999999999999,-101.6,1000.0,Solid state reaction
CaMn0.9Ru0.1O3,0.003956,-60.57,400.0,Solid state reaction
CaMn0.9Ru0.1O3,0.003956,-60.57,700.0,Solid state reaction
CaMn0.9Ru0.1O3,0.003956,-60.57,1000.0,Solid state reaction
CaMn0.82Ru0.18O3,0.003105,-35.67,400.0,Solid state reaction
CaMn0.82Ru0.18O3,0.003105,-35.67,700.0,Solid state reaction
CaMn0.82Ru0.18O3,0.003105,-35.67,1000.0,Solid state reaction
CaGd0.98Mn0.02O3,0.027541000000000003,-215.39,300.0,Co-precipitation
CaGd0.98Mn0.02O3,0.027541000000000003,-215.39,400.0,Co-precipitation
CaGd0.98Mn0.02O3,0.027541000000000003,-215.39,700.0,Co-precipitation
CaGd0.98Mn0.02O3,0.027541000000000003,-215.39,1000.0,Co-precipitation
CaGd0.96Mn0.04O3,0.012874000000000002,-163.53,300.0,Co-precipitation
CaGd0.96Mn0.04O3,0.012874000000000002,-163.53,400.0,Co-precipitation
CaGd0.96Mn0.04O3,0.012874000000000002,-163.53,700.0,Co-precipitation
CaGd0.96Mn0.04O3,0.012874000000000002,-163.53,1000.0,Co-precipitation
CaGd0.94Mn0.06O3,0.011351356000000002,-118.52,300.0,Co-precipitation
CaGd0.94Mn0.06O3,0.011351356000000002,-118.52,400.0,Co-precipitation
CaGd0.94Mn0.06O3,0.011351356000000002,-118.52,700.0,Co-precipitation
CaGd0.94Mn0.06O3,0.011351356000000002,-118.52,1000.0,Co-precipitation
Nd1.4Bi0.6Ru2O7,0.0011769999999999999,23.09,400.0,Solid state reaction
Nd1.4Bi0.6Ru2O7,0.0011769999999999999,23.09,700.0,Solid state reaction
Nd1.4Bi0.6Ru2O7,0.0011769999999999999,23.09,1000.0,Solid state reaction
NdBiRu2O7,0.001759,21.17,400.0,Solid state reaction
NdBiRu2O7,0.001759,21.17,700.0,Solid state reaction
NdBiRu2O7,0.001759,21.17,1000.0,Solid state reaction
Yb1.4Bi0.6Ru2O7,0.003218,17.72,400.0,Solid state reaction
Yb1.4Bi0.6Ru2O7,0.003218,17.72,700.0,Solid state reaction
Yb1.4Bi0.6Ru2O7,0.003218,17.72,1000.0,Solid state reaction
YbBiRu2O7,0.001693,19.3,400.0,Solid state reaction
YbBiRu2O7,0.001693,19.3,700.0,Solid state reaction
YbBiRu2O7,0.001693,19.3,1000.0,Solid state reaction
Bi2Ru2O7,0.00049075,-1.64,400.0,Solid state reaction
Bi2Ru2O7,0.00049075,-1.64,700.0,Solid state reaction
Bi2Ru2O7,0.00049075,-1.64,1000.0,Solid state reaction
Y0.5Bi1.5Ru2O7,0.00101116,21.46,400.0,Solid state reaction
Y0.5Bi1.5Ru2O7,0.00101116,21.46,700.0,Solid state reaction
Y0.5Bi1.5Ru2O7,0.00101116,21.46,1000.0,Solid state reaction
YBiRu2O7,0.0019954,15.44,400.0,Solid state reaction
YBiRu2O7,0.0019954,15.44,700.0,Solid state reaction
YBiRu2O7,0.0019954,15.44,1000.0,Solid state reaction
Y2Ru2O7,5.732274775,270.0,400.0,Solid state reaction
Y2Ru2O7,5.732274775,270.0,700.0,Solid state reaction
Y2Ru2O7,5.732274775,270.0,1000.0,Solid state reaction
Nd2Ru2O7,2.0,40.0,300.0,solid state reaction
Nd2Ru2O7,2.0,40.0,400.0,solid state reaction
Nd2Ru2O7,2.0,40.0,700.0,solid state reaction
Nd2Ru2O7,2.0,40.0,1000.0,solid state reaction
Nd2Ru2O7,0.38,59.3,300.0,Ultrasonic spray pyrolysis
Nd2Ru2O7,0.38,59.3,400.0,Ultrasonic spray pyrolysis
Nd2Ru2O7,0.38,59.3,700.0,Ultrasonic spray pyrolysis
Ca0.9Nd0.1MnO3,0.119152,-90.28,400.0,Solid state reaction
Ca0.9Nd0.1MnO3,0.119152,-90.28,700.0,Solid state reaction
Ca0.9Nd0.1MnO3,0.119152,-90.28,1000.0,Solid state reaction
Ca0.9Tb0.1MnO3,0.107849,-90.28,400.0,Solid state reaction
Ca0.9Tb0.1MnO3,0.107849,-90.28,700.0,Solid state reaction
Ca0.9Tb0.1MnO3,0.107849,-90.28,1000.0,Solid state reaction
Ca0.9Ho0.1MnO3,0.07064400000000001,-90.28,400.0,Solid state reaction
Ca0.9Ho0.1MnO3,0.07064400000000001,-90.28,700.0,Solid state reaction
Ca0.9Ho0.1MnO3,0.07064400000000001,-90.28,1000.0,Solid state reaction
Ca0.9Yb0.1MnO3,0.040973,-90.28,400.0,Solid state reaction
Ca0.9Yb0.1MnO3,0.040973,-90.28,700.0,Solid state reaction
Ca0.9Yb0.1MnO3,0.040973,-90.28,1000.0,Solid state reaction
CaMnO3,0.460937,-600.16,400.0,Solid state reaction
CaMnO3,0.460937,-600.16,700.0,Solid state reaction
CaMnO3,0.460937,-600.16,1000.0,Solid state reaction
Ca0.9Tb0.1MnO3,0.00638941,-93.82,300.0,Solid state reaction
Ca0.9Tb0.1MnO3,0.00638941,-93.82,400.0,Solid state reaction
Ca0.9Tb0.1MnO3,0.00638941,-93.82,700.0,Solid state reaction
Ca0.9Tb0.1MnO3,0.00638941,-93.82,1000.0,Solid state reaction
Ca0.7Tb0.3MnO3,0.00549942,-44.36,300.0,Solid state reaction
Ca0.7Tb0.3MnO3,0.00549942,-44.36,400.0,Solid state reaction
Ca0.7Tb0.3MnO3,0.00549942,-44.36,700.0,Solid state reaction
Ca0.7Tb0.3MnO3,0.00549942,-44.36,1000.0,Solid state reaction
Ca0.9Ho0.1MnO3,0.00739839,-81.79,300.0,Solid state reaction
Ca0.9Ho0.1MnO3,0.00739839,-81.79,400.0,Solid state reaction
Ca0.9Ho0.1MnO3,0.00739839,-81.79,700.0,Solid state reaction
Ca0.9Ho0.1MnO3,0.00739839,-81.79,1000.0,Solid state reaction
Ca0.7Ho0.3MnO3,0.0043952,-45.05,300.0,Solid state reaction
Ca0.7Ho0.3MnO3,0.0043952,-45.05,400.0,Solid state reaction
Ca0.7Ho0.3MnO3,0.0043952,-45.05,700.0,Solid state reaction
Ca0.7Ho0.3MnO3,0.0043952,-45.05,1000.0,Solid state reaction
Ca0.9Y0.1MnO3,0.00477637,-81.71,300.0,Solid state reaction
Ca0.9Y0.1MnO3,0.00477637,-81.71,400.0,Solid state reaction
Ca0.9Y0.1MnO3,0.00477637,-81.71,700.0,Solid state reaction
Ca0.9Y0.1MnO3,0.00477637,-81.71,1000.0,Solid state reaction
Ca0.7Y0.3MnO3,0.00649209,-41.63,300.0,Solid state reaction
Ca0.7Y0.3MnO3,0.00649209,-41.63,400.0,Solid state reaction
Ca0.7Y0.3MnO3,0.00649209,-41.63,700.0,Solid state reaction
Ca0.7Y0.3MnO3,0.00649209,-41.63,1000.0,Solid state reaction
BaPbO3,0.0005094090000000001,-31.98,300.0,Solid state reaction (under oxygen)
BaPbO3,0.0005094090000000001,-31.98,400.0,Solid state reaction (under oxygen)
BaPbO3,0.0005094090000000001,-31.98,700.0,Solid state reaction (under oxygen)
BaPbO3,0.0005094090000000001,-31.98,1000.0,Solid state reaction (under oxygen)
Ba0.8Sr0.2PbO3,0.000476044,-30.29,300.0,Solid state reaction (under oxygen)
Ba0.8Sr0.2PbO3,0.000476044,-30.29,400.0,Solid state reaction (under oxygen)
Ba0.8Sr0.2PbO3,0.000476044,-30.29,700.0,Solid state reaction (under oxygen)
Ba0.8Sr0.2PbO3,0.000476044,-30.29,1000.0,Solid state reaction (under oxygen)
Ba0.6Sr0.4PbO3,0.00127204,-51.37,300.0,Solid state reaction (under oxygen)
Ba0.6Sr0.4PbO3,0.00127204,-51.37,400.0,Solid state reaction (under oxygen)
Ba0.6Sr0.4PbO3,0.00127204,-51.37,700.0,Solid state reaction (under oxygen)
Ba0.6Sr0.4PbO3,0.00127204,-51.37,1000.0,Solid state reaction (under oxygen)
Ba0.4Sr0.6PbO3,0.00395079,-96.44,300.0,Solid state reaction (under oxygen)
Ba0.4Sr0.6PbO3,0.00395079,-96.44,400.0,Solid state reaction (under oxygen)
Ba0.4Sr0.6PbO3,0.00395079,-96.44,700.0,Solid state reaction (under oxygen)
Ba0.4Sr0.6PbO3,0.00395079,-96.44,1000.0,Solid state reaction (under oxygen)
LaNiO3,0.002843,-19.88,400.0,"Evaporate nitrates (1173 K, air)"
LaNiO3,0.002843,-19.88,700.0,"Evaporate nitrates (1173 K, air)"
LaNiO3,0.002843,-19.88,1000.0,"Evaporate nitrates (1173 K, air)"
La0.9Bi0.1NiO3,0.002673,-20.95,400.0,"Evaporate nitrates (1173 K, air)"
La0.9Bi0.1NiO3,0.002673,-20.95,700.0,"Evaporate nitrates (1173 K, air)"
La0.9Bi0.1NiO3,0.002673,-20.95,1000.0,"Evaporate nitrates (1173 K, air)"
Ca0.96Sm0.04MnO3,0.006037,-139.46,400.0,Co-precipitation
Ca0.96Sm0.04MnO3,0.006037,-139.46,700.0,Co-precipitation
Ca0.96Sm0.04MnO3,0.006037,-139.46,1000.0,Co-precipitation
Bi2Te3,0.00055,162.0,300.0,melted
Bi2Te3,0.00045,-174.0,300.0,melted
Sb2Te3,0.00018999999999999998,38.0,300.0,melted
Sb2Te3,0.00011999999999999999,63.0,300.0,melted
Ag0.15Sb0.15Te1.15Ge0.85,0.00085,122.16,300.0,melted
Ag0.15Sb0.15Te1.15Ge0.85,0.00085,122.16,400.0,melted
Ag0.15Sb0.15Te1.15Ge0.85,0.00085,122.16,700.0,melted
Ag0.15Sb0.15Te1.15Ge0.85,0.00085,122.16,1000.0,melted
In0.05Co4Sb12,0.00677423,-295.57,300.0,Solid state reaction
In0.05Co4Sb12,0.00677423,-295.57,400.0,Solid state reaction
In0.05Co4Sb12,0.00677423,-295.57,700.0,Solid state reaction
In0.1Co4Sb12,0.00340249,-276.16,300.0,Solid state reaction
In0.1Co4Sb12,0.00340249,-276.16,400.0,Solid state reaction
In0.1Co4Sb12,0.00340249,-276.16,700.0,Solid state reaction
In0.15Co4Sb12,0.00212784,-266.33,300.0,Solid state reaction
In0.15Co4Sb12,0.00212784,-266.33,400.0,Solid state reaction
In0.15Co4Sb12,0.00212784,-266.33,700.0,Solid state reaction
In0.2Co4Sb12,0.00174818,-248.19,300.0,Solid state reaction
In0.2Co4Sb12,0.00174818,-248.19,400.0,Solid state reaction
In0.2Co4Sb12,0.00174818,-248.19,700.0,Solid state reaction
In0.25Co4Sb12,0.00134137,-247.94,300.0,Solid state reaction
In0.25Co4Sb12,0.00134137,-247.94,400.0,Solid state reaction
In0.25Co4Sb12,0.00134137,-247.94,700.0,Solid state reaction
In0.3Co4Sb12,-247.31,-0.00635,300.0,Solid state reaction
In0.3Co4Sb12,-247.31,-0.00742,400.0,Solid state reaction
In0.3Co4Sb12,-247.31,-0.00835,700.0,Solid state reaction
In0.2Co4Sb12,0.0011300000000000001,-192.21,300.0,Solid state reaction
In0.2Co4Sb12,0.0011300000000000001,-192.21,400.0,Solid state reaction
In0.2Co4Sb12,0.0011300000000000001,-192.21,700.0,Solid state reaction
Na0.02PbTe,0.00057,105.0,300.0,melted
Na0.02PbTe,0.00057,105.0,400.0,melted
Na0.02PbTe,0.00057,105.0,700.0,melted
Na0.02PbTe0.85Se0.15,0.00062,98.33,300.0,melted
Na0.02PbTe0.85Se0.15,0.00062,98.33,400.0,melted
Na0.02PbTe0.85Se0.15,0.00062,98.33,700.0,melted
Na0.02PbTe0.85Se0.15,0.00062,98.33,1000.0,melted
Na0.02PbTe0.75Se0.25,0.0006900000000000001,89.76,300.0,melted
Na0.02PbTe0.75Se0.25,0.0006900000000000001,89.76,400.0,melted
Na0.02PbTe0.75Se0.25,0.0006900000000000001,89.76,700.0,melted
Na0.02PbTe0.75Se0.25,0.0006900000000000001,89.76,1000.0,melted
Tl0.01Pb0.99Te,0.00355,197.87,300.0,melted
Tl0.01Pb0.99Te,0.00355,197.87,400.0,melted
Tl0.01Pb0.99Te,0.00355,197.87,700.0,melted
Tl0.02Pb0.98Te,0.0029100000000000003,195.21,300.0,melted
Tl0.02Pb0.98Te,0.0029100000000000003,195.21,400.0,melted
Tl0.02Pb0.98Te,0.0029100000000000003,195.21,700.0,melted
Si0.9Ge0.1,0.0020800000000000003,192.0,300.0,
Si0.9Ge0.1,0.0020800000000000003,192.0,400.0,
Si0.9Ge0.1,0.0020800000000000003,192.0,700.0,
Si0.9Ge0.1,0.0020800000000000003,192.0,1000.0,
Si0.8Ge0.2,0.0017100000000000001,161.0,300.0,
Si0.8Ge0.2,0.0017100000000000001,161.0,400.0,
Si0.8Ge0.2,0.0017100000000000001,161.0,700.0,
Si0.8Ge0.2,0.0017100000000000001,161.0,1000.0,
Si0.79936Ge0.19984B0.0008,0.0015184,151.36,300.0,Vacuum hot pressed
Si0.79936Ge0.19984B0.0008,0.0015184,151.36,400.0,Vacuum hot pressed
Si0.79936Ge0.19984B0.0008,0.0015184,151.36,700.0,Vacuum hot pressed
Si0.79936Ge0.19984B0.0008,0.0015184,151.36,1000.0,Vacuum hot pressed
Si0.7956Ge0.1989P0.0055,0.00133537,150.045,300.0,Vacuum hot pressed
Si0.7956Ge0.1989P0.0055,0.00133537,150.045,400.0,Vacuum hot pressed
Si0.7956Ge0.1989P0.0055,0.00133537,150.045,700.0,Vacuum hot pressed
Si0.7956Ge0.1989P0.0055,0.00133537,150.045,1000.0,Vacuum hot pressed
TiNiSn,0.0051,-245.0,300.0,Magnetic levitation induction furnace
TiNiSn,0.0051,-245.0,400.0,Magnetic levitation induction furnace
TiNiSn,0.0051,-245.0,700.0,Magnetic levitation induction furnace
TiNiSn,0.0051,-245.0,1000.0,Magnetic levitation induction furnace
Bi2Sr2Co2O8,0.00238,119.75,300.0,Solid state reaction + extra
Bi2Sr2Co2O8,0.00238,119.75,400.0,Solid state reaction + extra
Bi2Sr2Co2O8,0.00238,119.75,700.0,Solid state reaction + extra
Bi2Sr2Co2O8,0.00238,119.75,1000.0,Solid state reaction + extra
K2Bi8Se13,0.03246,-196.16,300.0,Solid state reaction + extra
K2Bi8Se13,0.004159,-219.62,300.0,Flux (Bi self-flux)
Ca2Co2O5,0.001467,142.36,300.0,melted
Ca2Co2O5,0.001467,142.36,400.0,melted
Ca2Co2O5,0.001467,142.36,700.0,melted
Ca2Co2O5,0.001467,142.36,1000.0,melted
ZnO,181.543206,-500.55,,Solid state reaction
Al0.02Zn0.98O,105.6963524,-289.98,,Solid state reaction
Ni0.02Zn0.98O,145.04741719999998,-206.81,,Solid state reaction
Zn0.9604Al0.0196Ni0.02O,40.25408877,-362.53,,Solid state reaction
WO2.9,0.00119,-31.41,300.0,Spark Plasma Sintering
WO2.9,0.00119,-31.41,400.0,Spark Plasma Sintering
WO2.9,0.00119,-31.41,700.0,Spark Plasma Sintering
WO2.9,0.00119,-31.41,1000.0,Spark Plasma Sintering
WO2.722,0.0001,-25.21,300.0,Spark Plasma Sintering
WO2.722,0.0001,-25.21,400.0,Spark Plasma Sintering
WO2.722,0.0001,-25.21,700.0,Spark Plasma Sintering
WO2.722,0.0001,-25.21,1000.0,Spark Plasma Sintering
La2CuO4,,,300.0,Solid state reaction
La1.61Sr0.39Cu0.94Ti0.06O4,,,300.0,Solid state reaction
La1.85Sr0.15Cu0.94Ti0.06O4,,,300.0,Solid state reaction
La1.73Sr0.27Cu0.94Ti0.06O4,,,300.0,Solid state reaction
La1.69Sr0.31Cu0.94Ti0.06O4,,,300.0,Solid state reaction
La1.67Sr0.34Cu0.94Ti0.06O4,,,300.0,Solid state reaction
La1.95Sr0.05CuO4,,,300.0,Solid state reaction (O2 atmosphere)
La1.95Sr0.05CuO4,,,400.0,Solid state reaction (O2 atmosphere)
La1.95Sr0.05CuO4,,,700.0,Solid state reaction (O2 atmosphere)
La1.95Sr0.05CuO4,,,1000.0,Solid state reaction (O2 atmosphere)
La1.9Sr0.1CuO4,,,300.0,Solid state reaction (O2 atmosphere)
La1.9Sr0.1CuO4,,,400.0,Solid state reaction (O2 atmosphere)
La1.9Sr0.1CuO4,,,700.0,Solid state reaction (O2 atmosphere)
La1.9Sr0.1CuO4,,,1000.0,Solid state reaction (O2 atmosphere)
La1.85Sr0.15CuO4,,,300.0,Solid state reaction (O2 atmosphere)
La1.85Sr0.15CuO4,,,400.0,Solid state reaction (O2 atmosphere)
La1.85Sr0.15CuO4,,,700.0,Solid state reaction (O2 atmosphere)
La1.85Sr0.15CuO4,,,1000.0,Solid state reaction (O2 atmosphere)
La1.725Sr0.28CuO4,,,300.0,Solid state reaction (O2 atmosphere)
La1.725Sr0.28CuO4,,,400.0,Solid state reaction (O2 atmosphere)
La1.725Sr0.28CuO4,,,700.0,Solid state reaction (O2 atmosphere)
La1.725Sr0.28CuO4,,,1000.0,Solid state reaction (O2 atmosphere)
TlCr5Se8,0.016,240.0,300.0,Solid state reaction
TlCr5Se8,0.016,240.0,400.0,Solid state reaction
TlCr5Se8,0.016,240.0,700.0,Solid state reaction
LiMn2O4,85.3104,-147.0,300.0,Solid state reaction (oxalates)
LiMn2O4,85.3104,-147.0,400.0,Solid state reaction (oxalates)
LiMn2O4,85.3104,-147.0,700.0,Solid state reaction (oxalates)
LiMn2O4,85.3104,-147.0,1000.0,Solid state reaction (oxalates)
CuFe0.9Cr0.1O2,0.0699656,299.003,300.0,Solid state reaction
CuFe0.9Cr0.1O2,0.0699656,299.003,400.0,Solid state reaction
CuFe0.9Cr0.1O2,0.0699656,299.003,700.0,Solid state reaction
CuFe0.9Cr0.1O2,0.0699656,299.003,1000.0,Solid state reaction
CuRh0.9Mg0.1O2,0.0019370000000000001,115.116,300.0,Solid state reaction
CuRh0.9Mg0.1O2,0.0019370000000000001,115.116,400.0,Solid state reaction
CuRh0.9Mg0.1O2,0.0019370000000000001,115.116,700.0,Solid state reaction
CuRh0.9Mg0.1O2,0.0019370000000000001,115.116,1000.0,Solid state reaction
CuCr0.98Mg0.02O2,0.119099,321.42900000000003,300.0,Solid state reaction
CuCr0.98Mg0.02O2,0.119099,321.42900000000003,400.0,Solid state reaction
CuCr0.98Mg0.02O2,0.119099,321.42900000000003,700.0,Solid state reaction
CuCr0.98Mg0.02O2,0.119099,321.42900000000003,1000.0,Solid state reaction
WO3,809.8083993,107.57799999999999,300.0,Solid state reaction
WO3,809.8083993,107.57799999999999,400.0,Solid state reaction
WO3,809.8083993,107.57799999999999,700.0,Solid state reaction
WO3,809.8083993,107.57799999999999,1000.0,Solid state reaction
W0.99O2.97Co0.02O0.03,707.6990581,97.0383,300.0,Solid state reaction
W0.99O2.97Co0.02O0.03,707.6990581,97.0383,400.0,Solid state reaction
W0.99O2.97Co0.02O0.03,707.6990581,97.0383,700.0,Solid state reaction
W0.99O2.97Co0.02O0.03,707.6990581,97.0383,1000.0,Solid state reaction
W0.95O2.95Co0.1O0.15,99.41840235,106.01,300.0,Solid state reaction
W0.95O2.95Co0.1O0.15,99.41840235,106.01,400.0,Solid state reaction
W0.95O2.95Co0.1O0.15,99.41840235,106.01,700.0,Solid state reaction
W0.95O2.95Co0.1O0.15,99.41840235,106.01,1000.0,Solid state reaction
W0.9O2.7Co0.2O0.3,175.70801540000002,105.575,300.0,Solid state reaction
W0.9O2.7Co0.2O0.3,175.70801540000002,105.575,400.0,Solid state reaction
W0.9O2.7Co0.2O0.3,175.70801540000002,105.575,700.0,Solid state reaction
W0.9O2.7Co0.2O0.3,175.70801540000002,105.575,1000.0,Solid state reaction
CaMnO3,0.24169000000000002,-587.185,300.0,Solid state reaction
CaMnO3,0.24169000000000002,-587.185,400.0,Solid state reaction
CaMnO3,0.24169000000000002,-587.185,700.0,Solid state reaction
CaMnO3,0.24169000000000002,-587.185,1000.0,Solid state reaction
CaYb0.05Mn0.95O3,0.0106095,-124.72,300.0,Solid state reaction
CaYb0.05Mn0.95O3,0.0106095,-124.72,400.0,Solid state reaction
CaYb0.05Mn0.95O3,0.0106095,-124.72,700.0,Solid state reaction