Formula,Resist,Seebeck,T (K),average atomic volume,preparative route
Sr0.8La0.2TiO3,0.00061297,-53.7,300.0,12.0,"solid state reaction, Ar"
Sr0.8La0.2TiO3,0.000533678,-64.7,400.0,12.0,"solid state reaction, Ar"
Sr0.8La0.2TiO3,0.00119206,-113.0,700.0,12.0,"solid state reaction, Ar"
Sr0.8La0.2TiO3,0.0023806179999999997,-158.0,1000.0,12.0,"solid state reaction, Ar"
TiNiSn,0.031417889,-271.305,300.0,17.35083333,"arc-melted, vacuum"
TiNiSn,0.008392923,-295.89099999999996,400.0,17.35083333,"arc-melted, vacuum"
TiNiSn,0.002761043,-255.058,700.0,17.35083333,"arc-melted, vacuum"
TiNiSn,0.00162668,-159.717,1000.0,17.35083333,"arc-melted, vacuum"
Ti0.99Nb0.01NiSn,0.001155085,-177.31900000000002,300.0,17.35083333,"arc-melted, vacuum"
Ti0.99Nb0.01NiSn,0.001240099,-192.458,400.0,17.35083333,"arc-melted, vacuum"
Ti0.99Nb0.01NiSn,0.001275479,-211.295,700.0,17.35083333,"arc-melted, vacuum"
Ti0.99Nb0.01NiSn,0.001142318,-172.59400000000002,1000.0,17.35083333,"arc-melted, vacuum"
Ti0.98Nb0.02NiSn,0.00065392,-139.982,300.0,17.35083333,"arc-melted, vacuum"
Ti0.98Nb0.02NiSn,0.000727215,-158.575,400.0,17.35083333,"arc-melted, vacuum"
Ti0.98Nb0.02NiSn,0.0009078360000000001,-188.543,700.0,17.35083333,"arc-melted, vacuum"
Ti0.98Nb0.02NiSn,0.000960366,-174.312,1000.0,17.35083333,"arc-melted, vacuum"
Ti0.95Nb0.05NiSn,0.000350664,-96.2097,300.0,17.35083333,"arc-melted, vacuum"
Ti0.95Nb0.05NiSn,0.000395775,-110.94,400.0,17.35083333,"arc-melted, vacuum"
Ti0.95Nb0.05NiSn,0.000566575,-146.063,700.0,17.35083333,"arc-melted, vacuum"
Ti0.95Nb0.05NiSn,0.000725805,-142.549,1000.0,17.35083333,"arc-melted, vacuum"
ZrNiSn,0.031417889,-353.714,300.0,18.90583333,"arc-melted, vacuum"
ZrNiSn,0.008742023,-342.67400000000004,400.0,18.90583333,"arc-melted, vacuum"
ZrNiSn,0.0027973670000000003,-284.671,700.0,18.90583333,"arc-melted, vacuum"
ZrNiSn,0.0015898179999999998,-212.937,1000.0,18.90583333,"arc-melted, vacuum"
Zr0.99Nb0.01NiSn,0.00109507,-170.87599999999998,300.0,18.90583333,"arc-melted, vacuum"
Zr0.99Nb0.01NiSn,0.001240347,-189.025,400.0,18.90583333,"arc-melted, vacuum"
Zr0.99Nb0.01NiSn,0.001348732,-228.446,700.0,18.90583333,"arc-melted, vacuum"
Zr0.99Nb0.01NiSn,0.001214574,-210.78900000000002,1000.0,18.90583333,"arc-melted, vacuum"
Zr0.98Nb0.02NiSn,0.000615745,-131.398,300.0,18.90583333,"arc-melted, vacuum"
Zr0.98Nb0.02NiSn,0.000691477,-148.254,400.0,18.90583333,"arc-melted, vacuum"
Zr0.98Nb0.02NiSn,0.00087395,-193.68099999999998,700.0,18.90583333,"arc-melted, vacuum"
Zr0.98Nb0.02NiSn,0.000951602,-196.196,1000.0,18.90583333,"arc-melted, vacuum"
Zr0.95Nb0.05NiSn,0.000337249,-78.184,300.0,18.90583333,"arc-melted, vacuum"
Zr0.95Nb0.05NiSn,0.00036433300000000005,-89.0283,400.0,18.90583333,"arc-melted, vacuum"
Zr0.95Nb0.05NiSn,0.00047369800000000004,-129.304,700.0,18.90583333,"arc-melted, vacuum"
Zr0.95Nb0.05NiSn,0.000586514,-150.70600000000002,1000.0,18.90583333,"arc-melted, vacuum"
Ca3Co4O9,0.045864405999999996,50.1234,300.0,10.864844900000001,"sol-gel, air"
Ca3Co4O9,0.041030186,58.0016,400.0,10.864844900000001,"sol-gel, air"
Ca3Co4O9,0.028737366,84.2826,700.0,10.864844900000001,"sol-gel, air"
Ca3Co4O9,0.026053065,118.60700000000001,1000.0,10.864844900000001,"sol-gel, air"
La0.05Ca2.85Co3.8O8.55,0.04077738,62.1344,300.0,10.864844900000001,"sol-gel, air"
La0.05Ca2.85Co3.8O8.55,0.037831785,70.013,400.0,10.864844900000001,"sol-gel, air"
La0.05Ca2.85Co3.8O8.55,0.02510973,88.58,700.0,10.864844900000001,"sol-gel, air"
La0.05Ca2.85Co3.8O8.55,0.019086118,123.896,1000.0,10.864844900000001,"sol-gel, air"
La0.3Ca2.7Co4O9,0.059608255,59.7107,300.0,10.864844900000001,"sol-gel, air"
La0.3Ca2.7Co4O9,0.038675593,68.4692,400.0,10.864844900000001,"sol-gel, air"
La0.3Ca2.7Co4O9,0.020697677,92.43700000000001,700.0,10.864844900000001,"sol-gel, air"
La0.3Ca2.7Co4O9,0.015040127,126.87,1000.0,10.864844900000001,"sol-gel, air"
La0.45Ca2.55Co4O9,0.043094346,65.3296,300.0,10.864844900000001,"sol-gel, air"
La0.45Ca2.55Co4O9,0.03725033,73.0975,400.0,10.864844900000001,"sol-gel, air"
La0.45Ca2.55Co4O9,0.022970024,95.0781,700.0,10.864844900000001,"sol-gel, air"
La0.45Ca2.55Co4O9,0.01759148,131.717,1000.0,10.864844900000001,"sol-gel, air"
Cr1.3Mo6S8,0.000508654,21.5075,300.0,17.60849673,"solid state reaction, vacuum"
Cr1.3Mo6S8,0.0005519230000000001,27.070999999999998,400.0,17.60849673,"solid state reaction, vacuum"
Cr1.3Mo6S8,0.0006932689999999999,51.22,700.0,17.60849673,"solid state reaction, vacuum"
Cr1.3Mo6S8,0.000814423,69.9615,1000.0,17.60849673,"solid state reaction, vacuum"
Mn1.3Mo6S8,0.000690385,27.2882,300.0,18.15022222,"solid state reaction, vacuum"
Mn1.3Mo6S8,0.000736538,30.9869,400.0,18.15022222,"solid state reaction, vacuum"
Mn1.3Mo6S8,0.000877885,47.6766,700.0,18.15022222,"solid state reaction, vacuum"
Mn1.3Mo6S8,0.0009615380000000001,57.4673,1000.0,18.15022222,"solid state reaction, vacuum"
Fe1.3Mo6S8,0.00065,22.6264,300.0,17.93822222,"solid state reaction, vacuum"
Fe1.3Mo6S8,0.000673077,28.1894,400.0,17.93822222,"solid state reaction, vacuum"
Fe1.3Mo6S8,0.000759615,45.2526,700.0,17.93822222,"solid state reaction, vacuum"
Fe1.3Mo6S8,0.000825962,53.9242,1000.0,17.93822222,"solid state reaction, vacuum"
Ni2.0Mo6S8,0.0006182690000000001,8.26675,300.0,16.69458333,"solid state reaction, vacuum"
Ni2.0Mo6S8,0.0005115380000000001,9.168460000000001,400.0,16.69458333,"solid state reaction, vacuum"
Ni2.0Mo6S8,0.000456731,20.8232,700.0,16.69458333,"solid state reaction, vacuum"
Ni2.0Mo6S8,0.000468269,33.2249,1000.0,16.69458333,"solid state reaction, vacuum"
Cu4.0Mo6S8,0.000831731,47.8006,300.0,15.80703704,"solid state reaction, vacuum"
Cu4.0Mo6S8,0.001025,61.5689,400.0,15.80703704,"solid state reaction, vacuum"
Cu4.0Mo6S8,0.00168846,105.3,700.0,15.80703704,"solid state reaction, vacuum"
Cu4.0Mo6S8,0.00217885,132.993,1000.0,15.80703704,"solid state reaction, vacuum"
Ca0.9Bi0.1MnO3,0.003705584,-82.6524,300.0,10.6785,"solid state reaction, air"
Ca0.9Bi0.1MnO3,0.003996595,-100.786,400.0,10.6785,"solid state reaction, air"
Ca0.9Bi0.1MnO3,0.004997002,-119.70700000000001,700.0,10.6785,"solid state reaction, air"
Ca0.9Bi0.1MnO3,0.005189333,-96.0071,1000.0,10.6785,"solid state reaction, air"
Ca0.9Ce0.1MnO3,0.007290755,-49.1829,300.0,10.757,"solid state reaction, air"
Ca0.9Ce0.1MnO3,0.006446871,-55.3822,400.0,10.757,"solid state reaction, air"
Ca0.9Ce0.1MnO3,0.0066573019999999995,-59.9632,700.0,10.757,"solid state reaction, air"
Ca0.9Ce0.1MnO3,0.007892598,-80.4739,1000.0,10.757,"solid state reaction, air"
Ca0.9Y0.1MnO3,0.017755745,-86.6384,300.0,10.757,"solid state reaction, air"
Ca0.9Y0.1MnO3,0.015133951000000001,-91.2314,400.0,10.757,"solid state reaction, air"
Ca0.9Y0.1MnO3,0.015859246,-102.587,700.0,10.757,"solid state reaction, air"
Ca0.9Y0.1MnO3,0.017598383999999998,-107.56700000000001,1000.0,10.757,"solid state reaction, air"
Ca0.9Sm0.1MnO3,0.008634906999999999,-102.175,300.0,10.5195,"solid state reaction, air"
Ca0.9Sm0.1MnO3,0.007468985,-105.96799999999999,400.0,10.5195,"solid state reaction, air"
Ca0.9Sm0.1MnO3,0.00788457,-146.796,700.0,10.5195,"solid state reaction, air"
Ca0.9Sm0.1MnO3,0.007834535,-122.70700000000001,1000.0,10.5195,"solid state reaction, air"
Ca0.9Sb0.1MnO3,0.462038885,-69.9028,300.0,10.5195,"solid state reaction, air"
Ca0.9Sb0.1MnO3,0.115283742,-70.9189,400.0,10.5195,"solid state reaction, air"
Ca0.9Sb0.1MnO3,0.06706638200000001,-81.0778,700.0,10.5195,"solid state reaction, air"
Ca0.9Sb0.1MnO3,0.06423185099999999,-70.1149,1000.0,10.5195,"solid state reaction, air"
Ca0.9La0.1MnO3,0.007963495,-93.0096,300.0,10.6015,"solid state reaction, air"
Ca0.9La0.1MnO3,0.006990171999999999,-98.40299999999999,400.0,10.6015,"solid state reaction, air"
Ca0.9La0.1MnO3,0.008549054,-116.934,700.0,10.6015,"solid state reaction, air"
Ca0.9La0.1MnO3,0.010285695,-88.43700000000001,1000.0,10.6015,"solid state reaction, air"
Ca0.9Pb0.1MnO3,0.044538272000000004,-274.285,300.0,10.6015,"solid state reaction, air"
Ca0.9Pb0.1MnO3,0.05246920099999999,-266.152,400.0,10.6015,"solid state reaction, air"
Ca0.9Pb0.1MnO3,0.06050229,-277.092,700.0,10.6015,"solid state reaction, air"
Ca0.9Pb0.1MnO3,0.046817356,-114.74600000000001,1000.0,10.6015,"solid state reaction, air"
Ca0.9In0.1MnO3,0.214993195,-348.389,300.0,10.6015,"solid state reaction, air"
Ca0.9In0.1MnO3,0.20461362800000002,-356.591,400.0,10.6015,"solid state reaction, air"
Ca0.9In0.1MnO3,0.230797637,-410.971,700.0,10.6015,"solid state reaction, air"
Ca0.9In0.1MnO3,0.17343286100000002,-234.678,1000.0,10.6015,"solid state reaction, air"
Ca0.9Sn0.1MnO3,2.197937455,-283.848,300.0,10.6015,"solid state reaction, air"
Ca0.9Sn0.1MnO3,2.301596618,-281.694,400.0,10.6015,"solid state reaction, air"
Ca0.9Sn0.1MnO3,2.08200172,-255.18,700.0,10.6015,"solid state reaction, air"
Ca0.9Sn0.1MnO3,0.478677319,-145.433,1000.0,10.6015,"solid state reaction, air"
CaMnO3,6.975397772000001,-476.68300000000005,300.0,10.3485,"solid state reaction, air"
CaMnO3,2.869819259,-460.99199999999996,400.0,10.3485,"solid state reaction, air"
CaMnO3,0.48518723399999997,-332.06699999999995,700.0,10.3485,"solid state reaction, air"
CaMnO3,0.087496719,-192.833,1000.0,10.3485,"solid state reaction, air"
CuCrO2,18.3684,1235.43,300.0,10.92166667,"solid state reaction, air"
CuCrO2,18.682000000000002,916.284,400.0,10.92166667,"solid state reaction, air"
CuCrO2,3.4081,633.893,700.0,10.92166667,"solid state reaction, air"
CuCrO2,1.66438,617.422,1000.0,10.92166667,"solid state reaction, air"
CuCr0.99Mg0.01O2,6.11207,525.19,300.0,10.92166667,"solid state reaction, air"
CuCr0.99Mg0.01O2,1.7577099999999999,444.68800000000005,400.0,10.92166667,"solid state reaction, air"
CuCr0.99Mg0.01O2,0.472214,428.212,700.0,10.92166667,"solid state reaction, air"
CuCr0.99Mg0.01O2,0.36598800000000004,445.82599999999996,1000.0,10.92166667,"solid state reaction, air"
CuCr0.98Mg0.02O2,1.0452299999999999,311.548,300.0,10.92666667,"solid state reaction, air"
CuCr0.98Mg0.02O2,0.5692159999999999,332.18199999999996,400.0,10.92666667,"solid state reaction, air"
CuCr0.98Mg0.02O2,0.26508200000000004,367.981,700.0,10.92666667,"solid state reaction, air"
CuCr0.98Mg0.02O2,0.23217600000000002,403.782,1000.0,10.92666667,"solid state reaction, air"
CuCr0.97Mg0.03O2,0.101735,199.047,300.0,10.92833333,"solid state reaction, air"
CuCr0.97Mg0.03O2,0.069316,241.278,400.0,10.92833333,"solid state reaction, air"
CuCr0.97Mg0.03O2,0.0485233,289.57599999999996,700.0,10.92833333,"solid state reaction, air"
CuCr0.97Mg0.03O2,0.0470555,325.374,1000.0,10.92833333,"solid state reaction, air"
CuCr0.96Mg0.04O2,0.10668299999999999,196.762,300.0,10.93333333,"solid state reaction, air"
CuCr0.96Mg0.04O2,0.0660993,225.36900000000003,400.0,10.93333333,"solid state reaction, air"
CuCr0.96Mg0.04O2,0.0469005,270.256,700.0,10.93333333,"solid state reaction, air"
CuCr0.96Mg0.04O2,0.0442664,303.784,1000.0,10.93333333,"solid state reaction, air"
CuCr0.95Mg0.05O2,0.0754474,208.13099999999997,300.0,10.93,"solid state reaction, air"
CuCr0.95Mg0.05O2,0.0546485,241.265,400.0,10.93,"solid state reaction, air"
CuCr0.95Mg0.05O2,0.0406648,281.605,700.0,10.93,"solid state reaction, air"
CuCr0.95Mg0.05O2,0.0408004,325.387,1000.0,10.93,"solid state reaction, air"
NaCo2O4,0.000295,81.9,300.0,10.81,"flux (NaCl), air"
NaCo2O4,0.000354,98.0,400.0,10.81,"flux (NaCl), air"
NaCo2O4,0.000484,146.0,700.0,10.81,"flux (NaCl), air"
NaCo2O4,0.0006,200.0,1000.0,10.81,"flux (NaCl), air"
NaCo2O4,0.0021100000000000003,104.0,300.0,10.81,"solid state reaction, air"
NaCo2O4,0.00253,118.0,400.0,10.81,"solid state reaction, air"
NaCo2O4,0.0034,161.0,700.0,10.81,"solid state reaction, air"
NaCo2O4,0.004,175.0,1000.0,10.81,"solid state reaction, air"
ZnO,0.08483635099999999,-159.904,700.0,11.905,"solid state reaction, air"
ZnO,0.060526459000000005,-190.963,1000.0,11.905,"solid state reaction, air"
Zn0.98Al0.02O,0.06809206,-133.608,700.0,11.905,"solid state reaction, air"
Zn0.98Al0.02O,0.025429957000000003,-182.054,1000.0,11.905,"solid state reaction, air"
Zn0.97Al0.03O,0.049759661,-124.90899999999999,700.0,11.905,"solid state reaction, air"
Zn0.97Al0.03O,0.019382023999999998,-173.57299999999998,1000.0,11.905,"solid state reaction, air"
Zn0.95Al0.05O,0.046832485,-112.738,700.0,11.905,"solid state reaction, air"
Zn0.95Al0.05O,0.018318575,-164.44299999999998,1000.0,11.905,"solid state reaction, air"
Zn0.97Al0.025Ti0.005O,0.033823549,-170.775,700.0,11.905,"solid state reaction, air"
Zn0.97Al0.025Ti0.005O,0.017394965,-217.25900000000001,1000.0,11.905,"solid state reaction, air"
Zn0.97Al0.02Ti0.01O,0.029403376000000002,-147.96,700.0,11.905,"solid state reaction, air"
Zn0.97Al0.02Ti0.01O,0.015898605,-212.25599999999997,1000.0,11.905,"solid state reaction, air"
Zn0.97Al0.015Ti0.015O,0.026005029,-143.17700000000002,700.0,11.905,"solid state reaction, air"
Zn0.97Al0.015Ti0.015O,0.014455316000000001,-205.305,1000.0,11.905,"solid state reaction, air"
Zn0.97Al0.01Ti0.02O,0.023522715,-139.04399999999998,700.0,11.905,"solid state reaction, air"
Zn0.97Al0.01Ti0.02O,0.013252247,-195.093,1000.0,11.905,"solid state reaction, air"
Zr0.5Hf0.5NiSn,0.00974787,-178.765,300.0,18.90583333,"arc-melted, Ar"
Zr0.5Hf0.5NiSn,0.00625721,-208.592,400.0,18.90583333,"arc-melted, Ar"
Zr0.5Hf0.5NiSn,0.00216666,-236.062,700.0,18.90583333,"arc-melted, Ar"
Zr0.4Hf0.4Ti0.2NiSn,0.00904316,-188.65900000000002,300.0,18.90583333,"arc-melted, Ar"
Zr0.4Hf0.4Ti0.2NiSn,0.00511455,-233.58900000000003,400.0,18.90583333,"arc-melted, Ar"
Zr0.4Hf0.4Ti0.2NiSn,0.00176663,-276.689,700.0,18.90583333,"arc-melted, Ar"
Zr0.35Hf0.35Ti0.3NiSn,0.00860507,-369.912,300.0,18.90583333,"arc-melted, Ar"
Zr0.35Hf0.35Ti0.3NiSn,0.00555251,-379.426,400.0,18.90583333,"arc-melted, Ar"
Zr0.35Hf0.35Ti0.3NiSn,0.00228094,-348.046,700.0,18.90583333,"arc-melted, Ar"
Zr0.25Hf0.25Ti0.5NiSn,0.00475748,-311.579,300.0,18.90583333,"arc-melted, Ar"
Zr0.25Hf0.25Ti0.5NiSn,0.00338128,-329.939,400.0,18.90583333,"arc-melted, Ar"
Zr0.25Hf0.25Ti0.5NiSn,0.00163327,-328.251,700.0,18.90583333,"arc-melted, Ar"
Zr0.15Hf0.15Ti0.7NiSn,0.0048146000000000005,-252.204,300.0,18.90583333,"arc-melted, Ar"
Zr0.15Hf0.15Ti0.7NiSn,0.00313369,-264.835,400.0,18.90583333,"arc-melted, Ar"
Zr0.15Hf0.15Ti0.7NiSn,0.00148089,-260.541,700.0,18.90583333,"arc-melted, Ar"
CeFe4Sb12,0.000993432,68.2676,300.0,22.42058824,"melted, vacuum"
CeFe4Sb12,0.00105643,87.0227,400.0,22.42058824,"melted, vacuum"
CeFe4Sb12,0.00130209,128.846,700.0,22.42058824,"melted, vacuum"
CeFe4Sb12,0.00174341,156.737,1000.0,22.42058824,"melted, vacuum"
CeFe3CoSb12,0.00147222,86.5388,300.0,22.25911765,"melted, vacuum"
CeFe3CoSb12,0.00162618,107.70200000000001,400.0,22.25911765,"melted, vacuum"
CeFe3CoSb12,0.00201791,149.997,700.0,22.25911765,"melted, vacuum"
CeFe3CoSb12,0.00230374,176.44099999999997,1000.0,22.25911765,"melted, vacuum"
CeFe2.5Co1.5Sb12,0.0027419000000000002,104.331,300.0,22.25911765,"melted, vacuum"
CeFe2.5Co1.5Sb12,0.00287783,123.07700000000001,400.0,22.25911765,"melted, vacuum"
CeFe2.5Co1.5Sb12,0.00330908,162.016,700.0,22.25911765,"melted, vacuum"
CeFe2.5Co1.5Sb12,0.00339272,189.903,1000.0,22.25911765,"melted, vacuum"
CeFe2Co2Sb12,0.00473037,107.699,300.0,21.97058824,"melted, vacuum"
CeFe2Co2Sb12,0.00481344,134.608,400.0,21.97058824,"melted, vacuum"
CeFe2Co2Sb12,0.004878100000000001,163.937,700.0,21.97058824,"melted, vacuum"
CeFe2Co2Sb12,0.00499442,117.78399999999999,1000.0,21.97058824,"melted, vacuum"
CeFeCo3Sb12,0.010453200000000001,-87.0125,300.0,21.97058824,"melted, vacuum"
CeFeCo3Sb12,0.00985308,-102.42399999999999,400.0,21.97058824,"melted, vacuum"
CeFeCo3Sb12,0.00608923,-140.861,700.0,21.97058824,"melted, vacuum"
CeFeCo3Sb12,0.00448351,-138.009,1000.0,21.97058824,"melted, vacuum"
CeFe1.5Co2.5Sb12,0.0609811,16.3458,300.0,21.97058824,"melted, vacuum"
CeFe1.5Co2.5Sb12,0.044602800000000005,12.0057,400.0,21.97058824,"melted, vacuum"
CeFe1.5Co2.5Sb12,0.011935,-35.5636,700.0,21.97058824,"melted, vacuum"
CeFe1.5Co2.5Sb12,0.00397477,-89.9103,1000.0,21.97058824,"melted, vacuum"
LaFe3CoSb12,0.00164306,108.391,300.0,22.14264706,"melted, vacuum"
LaFe3CoSb12,0.00183033,142.661,400.0,22.14264706,"melted, vacuum"
LaFe3CoSb12,0.00231764,210.479,700.0,22.14264706,"melted, vacuum"
Zr0.5Hf0.5NiSn,0.00932355,-177.252,300.0,18.90583333,"arc-melted, Ar"
Zr0.5Hf0.5NiSn,0.00236129,-237.912,700.0,18.90583333,"arc-melted, Ar"
Zr0.5Hf0.5NiSn1.998Sb0.002,0.002408,-250.0,300.0,18.90583333,"arc-melted, Ar"
Zr0.5Hf0.5NiSn1.998Sb0.002,0.002168,-281.0,400.0,18.90583333,"arc-melted, Ar"
Zr0.5Hf0.5NiSn1.998Sb0.002,0.001544,-307.0,700.0,18.90583333,"arc-melted, Ar"
Zr0.5Hf0.5NiSn1.994Sb0.006,0.001166,-211.0,300.0,18.90583333,"arc-melted, Ar"
Zr0.5Hf0.5NiSn1.994Sb0.006,0.0012526,-237.0,400.0,18.90583333,"arc-melted, Ar"
Zr0.5Hf0.5NiSn1.994Sb0.006,0.0013186,-274.0,700.0,18.90583333,"arc-melted, Ar"
Zr0.4Hf0.4Ti0.2NiSn,0.00877175,-181.75599999999997,300.0,18.90583333,"arc-melted, Ar"
Zr0.4Hf0.4Ti0.2NiSn,0.0021511,-287.251,700.0,18.90583333,"arc-melted, Ar"
Zr0.35Hf0.35Ti0.3NiSn,0.00841046,-329.724,300.0,18.90583333,"arc-melted, Ar"
Zr0.35Hf0.35Ti0.3NiSn,0.00234825,-345.217,700.0,18.90583333,"arc-melted, Ar"
Zr0.3Hf0.3Ti0.4NiSn,0.00845644,-316.151,300.0,18.90583333,"arc-melted, Ar"
Zr0.3Hf0.3Ti0.4NiSn,0.00203291,-358.019,700.0,18.90583333,"arc-melted, Ar"
Zr0.25Hf0.25Ti0.5NiSn,0.00494914,-303.567,300.0,18.90583333,"arc-melted, Ar"
Zr0.25Hf0.25Ti0.5NiSn,0.00188843,-333.898,700.0,18.90583333,"arc-melted, Ar"
Zr0.15Hf0.15Ti0.7NiSn,0.00467326,-250.71099999999998,300.0,18.90583333,"arc-melted, Ar"
Zr0.15Hf0.15Ti0.7NiSn,0.0016849,-260.931,700.0,18.90583333,"arc-melted, Ar"
SrTi0.8Nb0.2O3,0.004618298,-63.5492,300.0,12.128,"solid state reaction, air"
SrTi0.8Nb0.2O3,0.004541079,-76.9741,400.0,12.128,"solid state reaction, air"
SrTi0.8Nb0.2O3,0.004614717,-122.314,700.0,12.128,"solid state reaction, air"
SrTi0.8Nb0.2O3,0.005626132,-163.115,1000.0,12.128,"solid state reaction, air"
SrDy0.08Ti0.92O3,0.009615385,-49.7,300.0,12.128,"solid state reaction, air"
SrDy0.08Ti0.92O3,0.004,-70.5,400.0,12.128,"solid state reaction, air"
SrDy0.08Ti0.92O3,0.004587155999999999,-147.0,700.0,12.128,"solid state reaction, air"
SrDy0.08Ti0.92O3,0.008333333,-191.6,1000.0,12.128,"solid state reaction, air"
SrNd0.17Ti0.83O3,0.002597403,-32.5,300.0,12.128,"solid state reaction, air"
SrNd0.17Ti0.83O3,0.0019267820000000001,-42.2,400.0,12.128,"solid state reaction, air"
SrNd0.17Ti0.83O3,0.002269632,-96.0,700.0,12.128,"solid state reaction, air"
SrNd0.17Ti0.83O3,0.0041841000000000005,-141.8,1000.0,12.128,"solid state reaction, air"
SrNd0.2Ti0.8O3,0.001838235,-34.4,300.0,12.128,"solid state reaction, air"
SrNd0.2Ti0.8O3,0.001474926,-44.9,400.0,12.128,"solid state reaction, air"
SrNd0.2Ti0.8O3,0.001953125,-94.4,700.0,12.128,"solid state reaction, air"
SrNd0.2Ti0.8O3,0.003952569,-140.0,1000.0,12.128,"solid state reaction, air"
SrNd0.24Ti0.76O3,0.002247191,-22.6,300.0,12.128,"solid state reaction, air"
SrNd0.24Ti0.76O3,0.001808318,-31.5,400.0,12.128,"solid state reaction, air"
SrNd0.24Ti0.76O3,0.0018621970000000001,-80.7,700.0,12.128,"solid state reaction, air"
SrNd0.24Ti0.76O3,0.003194888,-124.0,1000.0,12.128,"solid state reaction, air"
Zn4Sb3,0.00230891,122.133,300.0,25.56571429,"solid state reaction, Ar"
Zn4Sb3,0.00266982,148.361,400.0,25.56571429,"solid state reaction, Ar"
Zn4Sb3,0.00335417,184.769,700.0,25.56571429,"solid state reaction, Ar"
Zn4Sb3,0.00212594,126.887,300.0,25.56571429,"solid state reaction, Ar"
Zn4Sb3,0.0024668000000000003,155.085,400.0,25.56571429,"solid state reaction, Ar"
Zn4Sb3,0.00316607,188.372,700.0,25.56571429,"solid state reaction, Ar"
Zn4Sb3,0.00217354,135.898,300.0,25.56571429,"solid state reaction, Ar"
Zn4Sb3,0.0025094,160.988,400.0,25.56571429,"solid state reaction, Ar"
Zn4Sb3,0.00328897,191.81099999999998,700.0,25.56571429,"solid state reaction, Ar"
ZnO,0.2597,-301.0,300.0,11.905,"solid state reaction, air"
ZnO,0.3891,-293.962,400.0,11.905,"solid state reaction, air"
ZnO,1.786,-329.869,700.0,11.905,"solid state reaction, air"
ZnO,2.97,-436.926,1000.0,11.905,"solid state reaction, air"