Formula,Resist,Seebeck,T (K),average atomic volume,preparative route
Zn0.995Al0.005O,0.005623413000000001,-154.02200000000002,300.0,11.905,"solid state reaction, air"
Zn0.995Al0.005O,0.00616595,-190.595,400.0,11.905,"solid state reaction, air"
Zn0.995Al0.005O,0.009120108,-166.107,700.0,11.905,"solid state reaction, air"
Zn0.995Al0.005O,0.008709636,-231.53599999999997,1000.0,11.905,"solid state reaction, air"
Zn0.99Al0.01O,0.0027542290000000004,-178.859,300.0,11.905,"solid state reaction, air"
Zn0.99Al0.01O,0.003388442,-204.023,400.0,11.905,"solid state reaction, air"
Zn0.99Al0.01O,0.003981072,-182.21900000000002,700.0,11.905,"solid state reaction, air"
Zn0.99Al0.01O,0.004570882,-167.118,1000.0,11.905,"solid state reaction, air"
Zn0.98Al0.02O,0.001202264,-137.914,300.0,11.905,"solid state reaction, air"
Zn0.98Al0.02O,0.00128825,-147.654,400.0,11.905,"solid state reaction, air"
Zn0.98Al0.02O,0.0014791079999999998,-171.48,700.0,11.905,"solid state reaction, air"
Zn0.98Al0.02O,0.001819701,-175.0,1000.0,11.905,"solid state reaction, air"
Zn0.95Al0.05O,0.0013182570000000002,-174.827,300.0,11.905,"solid state reaction, air"
Zn0.95Al0.05O,0.001548817,-173.81599999999997,400.0,11.905,"solid state reaction, air"
Zn0.95Al0.05O,0.002089296,-195.646,700.0,11.905,"solid state reaction, air"
Zn0.95Al0.05O,0.002818383,-200.02599999999998,1000.0,11.905,"solid state reaction, air"
SrNb0.15Ti0.85O3,5.017057997,-39.5353,300.0,12.128,"solid state reaction, Ar"
SrNb0.15Ti0.85O3,0.375476856,-47.5373,400.0,12.128,"solid state reaction, Ar"
SrNb0.15Ti0.85O3,0.055185202,-99.98200000000001,700.0,12.128,"solid state reaction, Ar"
SrNb0.15Ti0.85O3,0.024425631,-176.69400000000002,1000.0,12.128,"solid state reaction, Ar"
Ba8Ga16Ge30,0.00066,-42.79,300.0,23.22444444,"Czochralski method, He"
Ba8Ga16Ge30,0.000782,-49.65,300.0,23.22444444,"solid state reaction, Ar"
Ba8Ga16Ge30,0.0007599999999999999,-55.98,400.0,23.22444444,"Czochralski method, He"
Ba8Ga16Ge30,0.0009,-62.16,400.0,23.22444444,"solid state reaction, Ar"
Ba8Ga16Ge30,0.00123,-102.27,700.0,23.22444444,"Czochralski method, He"
Ba8Ga16Ge30,0.00161,-107.38,700.0,23.22444444,"solid state reaction, Ar"
Ba8Ga16Ge30,0.0017100000000000001,-141.98,1000.0,23.22444444,"Czochralski method, He"
Ba8Ga16Ge30,0.00223,-144.4,1000.0,23.22444444,"solid state reaction, Ar"
CsBi4Te6,0.0007740000000000001,105.3,300.0,36.93715909,"melted, air"
Sb0.005I0.015Cs0.995Bi3.98Te5.97,0.00085,154.2,300.0,36.93715909,"melted, air"
Ba8Ga16Ge30,0.000662,-50.0,300.0,23.22444444,"Czochralski method, argon"
Ba8Ga16Ge30,0.000791,-75.0,400.0,23.22444444,"Czochralski method, argon"
Ba8Ga16Ge30,0.001418,-150.0,700.0,23.22444444,"Czochralski method, argon"
Ba8Ga16Ge30,0.001996,-200.0,1000.0,23.22444444,"Czochralski method, argon"
Tl9BiTe6,0.00642,256.0,300.0,32.0328125,"melted, zone refined"
Tl9BiTe6,0.011170000000000001,337.9,400.0,32.0328125,"melted, zone refined"
Bi1.2S1.2Ti2S4,0.000324,-41.3,300.0,20.85714286,"solid-liquid-vapor reaction, vacuum"
Bi1.2S1.2Ti2S4,0.000499,-54.85,400.0,20.85714286,"solid-liquid-vapor reaction, vacuum"
Bi1.2S1.2Ti2S4,0.0009480000000000001,-89.12,700.0,20.85714286,"solid-liquid-vapor reaction, vacuum"
Pb1.8S1.8Ti2S4,0.00045999999999999996,-50.8,300.0,20.85714286,"solid-liquid-vapor reaction, vacuum"
Pb1.8S1.8Ti2S4,0.000728,-70.8,400.0,20.85714286,"solid-liquid-vapor reaction, vacuum"
Pb1.8S1.8Ti2S4,0.0021739999999999997,-128.9,700.0,20.85714286,"solid-liquid-vapor reaction, vacuum"
Sn1.2S1.2Ti2S4,0.000478,-64.8,300.0,20.85714286,"solid-liquid-vapor reaction, vacuum"
Sn1.2S1.2Ti2S4,0.00085,-88.8,400.0,20.85714286,"solid-liquid-vapor reaction, vacuum"
Sn1.2S1.2Ti2S4,0.0021739999999999997,-140.8,700.0,20.85714286,"solid-liquid-vapor reaction, vacuum"
Ba8Au5.14Si39.51,0.0033,-102.0,300.0,20.96333333,"melted, inert"
Ba8Au5.14Si39.51,0.0034200000000000003,-118.1,400.0,20.96333333,"melted, inert"
Ba8Au5.14Si39.51,0.0028699999999999997,-98.25,700.0,20.96333333,"melted, inert"
Ba8Au5.59Si39.01,0.00234,106.2,300.0,20.96333333,"melted, inert"
Ba8Au5.59Si39.01,0.00253,126.5,400.0,20.96333333,"melted, inert"
Ba8Au5.59Si39.01,0.00275,136.48,700.0,20.96333333,"melted, inert"
Ba8Au6.10Si38.97,0.000617,46.24,300.0,20.96333333,"melted, inert"
Ba8Au6.10Si38.97,0.0007019999999999999,56.99,400.0,20.96333333,"melted, inert"
Ba8Au6.10Si38.97,0.000789,76.87,700.0,20.96333333,"melted, inert"
KBi6.33S10,0.165,-25.0,300.0,33.44944444,"solid state reaction, vacuum"
Tl11.5Sb11.5Cu8Se27,0.21,220.0,300.0,25.31034483,"solid state reaction, vacuum"
TlTiPS5,14500.0,-160.0,300.0,23.435,"solid state reaction, vacuum"
Tl2Cu2SnTe4,130.0,345.0,300.0,27.78333333,"solid state reaction, vacuum"
Mg2Si0.999Bi0.001,0.001446,-151.0,300.0,21.54583333,"mechanochemical, Ar"
Mg2Si0.999Bi0.001,0.0017059999999999998,-164.4,400.0,21.54583333,"mechanochemical, Ar"
Mg2Si0.999Bi0.001,0.003167,-231.0,700.0,21.54583333,"mechanochemical, Ar"
Mg2Si0.9985Bi0.0015,0.00082,-107.0,300.0,21.54583333,"mechanochemical, Ar"
Mg2Si0.9985Bi0.0015,0.0009019999999999999,-149.0,400.0,21.54583333,"mechanochemical, Ar"
Mg2Si0.9985Bi0.0015,0.001575,-217.0,700.0,21.54583333,"mechanochemical, Ar"
Mg2Si0.997Bi0.003,0.000488,-76.6,300.0,21.54583333,"mechanochemical, Ar"
Mg2Si0.997Bi0.003,0.000541,-101.0,400.0,21.54583333,"mechanochemical, Ar"
Mg2Si0.997Bi0.003,0.0009289999999999999,-153.0,700.0,21.54583333,"mechanochemical, Ar"
Mg2Si0.995Bi0.005,0.00036899999999999997,-67.7,300.0,21.54583333,"mechanochemical, Ar"
Mg2Si0.995Bi0.005,0.000396,-83.5,400.0,21.54583333,"mechanochemical, Ar"
Mg2Si0.995Bi0.005,0.000621,-121.2,700.0,21.54583333,"mechanochemical, Ar"
Mg2Si0.994Bi0.006,0.00033,-61.0,300.0,21.54583333,"mechanochemical, Ar"
Mg2Si0.993Bi0.007,0.000348,-78.6,400.0,21.54583333,"mechanochemical, Ar"
Mg2Si0.993Bi0.007,0.0005690000000000001,-125.0,700.0,21.54583333,"mechanochemical, Ar"
Mg2Si0.98Bi0.02,0.0015199999999999999,-82.9,300.0,21.54583333,"solid state reaction, He/H2"
Mg2Si0.98Bi0.02,0.00121,-110.3,400.0,21.54583333,"solid state reaction, He/H2"
Mg2Si0.98Bi0.02,0.00125,-174.9,700.0,21.54583333,"solid state reaction, He/H2"
Mg2Si0.98Bi0.02,0.00186,-212.3,1000.0,21.54583333,"solid state reaction, He/H2"
Mg2Si0.6Ge0.4Bi0.02,0.0015,-83.0,300.0,21.52916667,"solid state reaction, He/H2"
Mg2Si0.6Ge0.4Bi0.02,0.0012699999999999999,-117.5,400.0,21.52916667,"solid state reaction, He/H2"
Mg2Si0.6Ge0.4Bi0.02,0.00137,-176.2,700.0,21.52916667,"solid state reaction, He/H2"
Mg2Si0.6Ge0.4Bi0.02,0.0022,-187.7,1000.0,21.52916667,"solid state reaction, He/H2"
Mg2Si0.98Ag0.02,1.24,26.0,300.0,21.54583333,"solid state reaction, He/H2"
Mg2Si0.98Ag0.02,0.413,178.0,400.0,21.54583333,"solid state reaction, He/H2"
Mg2Si0.98Ag0.02,0.0397,149.0,700.0,21.54583333,"solid state reaction, He/H2"
Mg2Si0.98Ag0.02,0.0066,192.0,1000.0,21.54583333,"solid state reaction, He/H2"
Mg2Si0.6Ge0.4Ag0.02,0.0513,30.42,300.0,21.52916667,"solid state reaction, He/H2"
Mg2Si0.6Ge0.4Ag0.02,0.0284,157.9,400.0,21.52916667,"solid state reaction, He/H2"
Mg2Si0.6Ge0.4Ag0.02,0.0149,318.8,700.0,21.52916667,"solid state reaction, He/H2"
Mg2Si0.6Ge0.4Ag0.02,0.0054399999999999995,224.0,1000.0,21.52916667,"solid state reaction, He/H2"
Ag9TlTe5,0.2544,388.0,300.0,27.34862069,melted
Ag9TlTe5,0.0832,327.0,400.0,27.34862069,melted
Ag9TlTe5,0.0264,311.0,700.0,27.34862069,melted
Tl2SnTe5,0.0042,219.0,300.0,32.6859375,melted
Tl2GeTe5,0.02314,285.0,300.0,31.67203125,melted
Tl2SnTe5,0.00433,163.0,300.0,32.6859375,"melted, hotpressed"
Tl2SnTe5,0.00321,145.0,300.0,32.6859375,flux (TlTe2)
Sr0.145Ga0.302Ge0.553,0.0129,-320.0,300.0,25.69125,solid state reaction
Sr0.147Ga0.298Ge0.555,0.00262,-154.0,300.0,25.69125,solid state reaction
Sr0.146Ga0.285Ge0.569,0.0019399999999999999,-128.0,300.0,25.69125,solid state reaction
Ba8Ga16Ge30,0.002817,149.0,300.0,23.22444444,arc melting
Ba8Ga16Ge30,0.0030489999999999996,185.0,400.0,23.22444444,arc melting
Ba8Ga16Ge30,0.00463,288.0,700.0,23.22444444,arc melting
Ba8Ga16Ge30,0.00625,289.0,1000.0,23.22444444,arc melting
Ba8Ga18Ge28,0.007764,-78.9,300.0,23.22444444,arc melting
Ba8Ga18Ge28,0.007143000000000001,-112.9,400.0,23.22444444,arc melting
Ba8Ga18Ge28,0.007418000000000001,-219.0,700.0,23.22444444,arc melting
Ba8Ga18Ge28,0.00735,-266.0,1000.0,23.22444444,arc melting
Ba8Ga16Sn30,0.0111,-188.6,300.0,29.54555556,"melted, Ar"
Ba8Ga16Sn30,0.0115,-233.0,400.0,29.54555556,"melted, Ar"
Ba8Ga16Sn30,0.006940000000000001,-138.0,700.0,29.54555556,"melted, Ar"
Sr8Ga16Ge30,0.000786,-71.9,300.0,22.83666667,"melted, Ar"
Sr8Ga16Ge30,0.0009140000000000001,-94.9,400.0,22.83666667,"melted, Ar"
Sr8Ga16Ge30,0.00141,-139.0,700.0,22.83666667,"melted, Ar"
Ba8Ga16Ge30,0.000669,-62.0,300.0,23.22444444,"melted, Ar"
Ba8Ga16Ge30,0.00084,-100.8,400.0,23.22444444,"melted, Ar"
Ba8Ga16Ge30,0.00141,-186.0,700.0,23.22444444,"melted, Ar"
Ba8Ga16Si30,0.00122,-49.3,300.0,23.22444444,"melted, Ar"
Ba8Ga16Si30,0.00133,-62.8,400.0,23.22444444,"melted, Ar"
Ba8Ga16Si30,0.00187,-111.0,700.0,23.22444444,"melted, Ar"
Mg2Si,0.001623,-89.0,300.0,21.54583333,"melted, Ar"
Mg2Si,0.0019760000000000003,-189.0,400.0,21.54583333,"melted, Ar"
Mg2Si,0.0038020000000000003,-267.0,700.0,21.54583333,"melted, Ar"
Mg1.95Ca0.05Si,0.001037,-74.8,300.0,21.54583333,"melted, Ar"
Mg1.95Ca0.05Si,0.00115,-94.8,400.0,21.54583333,"melted, Ar"
Mg1.95Ca0.05Si,0.002554,-153.0,700.0,21.54583333,"melted, Ar"
Mg1.9Ca0.1Si,0.002117,-61.0,300.0,21.54583333,"melted, Ar"
Mg1.9Ca0.1Si,0.002141,-74.0,400.0,21.54583333,"melted, Ar"
Mg1.9Ca0.1Si,0.002751,-130.0,700.0,21.54583333,"melted, Ar"
Mg2Si,0.001218,-178.0,300.0,21.54583333,"Bridgman method, Ar-H gas"
Mg2Si,0.00173,-205.0,400.0,21.54583333,"Bridgman method, Ar-H gas"
Mg2Si,0.004125,-282.6,700.0,21.54583333,"Bridgman method, Ar-H gas"
Cu2Se,0.001,90.0,300.0,15.38416667,"melted, vacuum"
Cu2Se,0.00161,107.0,400.0,15.38416667,"melted, vacuum"
Cu2Se,0.0042,201.0,700.0,15.38416667,"melted, vacuum"
Cu2Se,0.0078,297.0,1000.0,15.38416667,"melted, vacuum"
Cu1.98Se,0.000605,62.4,300.0,15.38416667,"melted, vacuum"
Cu1.98Se,0.000719,64.2,400.0,15.38416667,"melted, vacuum"
Cu1.98Se,0.00151,129.0,700.0,15.38416667,"melted, vacuum"
Cu1.98Se,0.00325,201.5,1000.0,15.38416667,"melted, vacuum"
Ca3Co4O9,0.001971,125.5,300.0,10.864844900000001,"flux (SrCl2), air"
Ca3Co4O9,0.002172,152.0,400.0,10.864844900000001,"flux (SrCl2), air"
Ca3Co4O9,0.002313,197.0,700.0,10.864844900000001,"flux (SrCl2), air"
Ca3Co4O9,0.002271,245.0,1000.0,10.864844900000001,"flux (SrCl2), air"
Ca3Co4O9,0.01067,117.0,300.0,10.864844900000001,"solid state reaction, air"
Ca3Co4O9,0.01122,121.0,400.0,10.864844900000001,"solid state reaction, air"
Ca3Co4O9,0.009901,147.0,700.0,10.864844900000001,"solid state reaction, air"
Ca3Co4O9,0.008968,177.0,1000.0,10.864844900000001,"solid state reaction, air"
Ca2.7Na0.3Co4O9,0.00813,117.0,300.0,10.864844900000001,"solid state reaction, air"
Ca2.7Na0.3Co4O9,0.005294,125.6,400.0,10.864844900000001,"solid state reaction, air"
Ca2.7Na0.3Co4O9,0.008006000000000001,153.6,700.0,10.864844900000001,"solid state reaction, air"
Ca2.7Na0.3Co4O9,0.0072829999999999995,184.0,1000.0,10.864844900000001,"solid state reaction, air"
Ca2.7Bi0.3Co4O9,0.01035,135.4,300.0,10.864844900000001,"solid state reaction, air"
Ca2.7Bi0.3Co4O9,0.010156,140.8,400.0,10.864844900000001,"solid state reaction, air"
Ca2.7Bi0.3Co4O9,0.009095,169.0,700.0,10.864844900000001,"solid state reaction, air"
Ca2.7Bi0.3Co4O9,0.007831,196.8,1000.0,10.864844900000001,"solid state reaction, air"
Ca2.4Na0.3Bi0.3Co4O9,0.009356999999999999,132.0,300.0,10.864844900000001,"solid state reaction, air"
Ca2.4Na0.3Bi0.3Co4O9,0.009225,144.6,400.0,10.864844900000001,"solid state reaction, air"
Ca2.4Na0.3Bi0.3Co4O9,0.008503,173.0,700.0,10.864844900000001,"solid state reaction, air"
Ca2.4Na0.3Bi0.3Co4O9,0.007622,205.0,1000.0,10.864844900000001,"solid state reaction, air"
Sr0.9Y0.1TiO3,0.000878,-92.5,300.0,11.872,"solid state reaction, air"
Sr0.9Y0.1TiO3,0.001259,-119.5,400.0,11.872,"solid state reaction, air"
Sr0.9Y0.1TiO3,0.00344,-185.3,700.0,11.872,"solid state reaction, air"
Sr0.9Y0.1TiO3,0.006614,-228.0,1000.0,11.872,"solid state reaction, air"
Ba0.3Sr0.6La0.1TiO3,0.0004937,-82.2,300.0,11.872,"solid state reaction , Ar"
Ba0.3Sr0.6La0.1TiO3,0.0007633999999999999,-101.4,400.0,11.872,"solid state reaction , Ar"
Ba0.3Sr0.6La0.1TiO3,0.0027300000000000002,-163.0,700.0,11.872,"solid state reaction , Ar"
CuRhO2,0.5868,294.8,300.0,11.71333333,"solid state reaction , air"
CuRhO2,0.2193,275.3,400.0,11.71333333,"solid state reaction , air"
CuRhO2,0.1023,292.4,700.0,11.71333333,"solid state reaction , air"
CuRhO2,0.1066,317.0,1000.0,11.71333333,"solid state reaction , air"
CuRh0.99Mg0.01O2,0.1314,261.0,300.0,11.71333333,"solid state reaction , air"
CuRh0.99Mg0.01O2,0.0656,259.0,400.0,11.71333333,"solid state reaction , air"
CuRh0.99Mg0.01O2,0.0458,283.0,700.0,11.71333333,"solid state reaction , air"
CuRh0.99Mg0.01O2,0.0488,315.0,1000.0,11.71333333,"solid state reaction , air"
CuRh0.96Mg0.04O2,0.011000000000000001,174.4,300.0,11.71333333,"solid state reaction , air"
CuRh0.96Mg0.04O2,0.0112,187.8,400.0,11.71333333,"solid state reaction , air"
CuRh0.96Mg0.04O2,0.0137,232.0,700.0,11.71333333,"solid state reaction , air"
CuRh0.96Mg0.04O2,0.0171,271.0,1000.0,11.71333333,"solid state reaction , air"
CuRh0.9Mg0.1O2,0.00164,99.7,300.0,11.71333333,"solid state reaction , air"
CuRh0.9Mg0.1O2,0.00196,115.0,400.0,11.71333333,"solid state reaction , air"
CuRh0.9Mg0.1O2,0.00299,144.9,700.0,11.71333333,"solid state reaction , air"
CuRh0.6Mg0.4O2,0.004079999999999999,168.2,1000.0,11.71333333,"solid state reaction , air"
Ca3AlSb3,1.199,165.0,300.0,29.38857143,"solid state reaction, Ar"
Ca3AlSb3,0.5376,315.9,400.0,29.38857143,"solid state reaction, Ar"
Ca3AlSb3,0.2486,411.8,700.0,29.38857143,"solid state reaction, Ar"
Ca3AlSb3,0.1127,265.4,1000.0,29.38857143,"solid state reaction, Ar"
Ca2.97Na0.03AlSb3,0.0981,90.0,300.0,29.38857143,"solid state reaction, Ar"
Ca2.97Na0.03AlSb3,0.0461,164.8,400.0,29.38857143,"solid state reaction, Ar"
Ca2.97Na0.03AlSb3,0.0172,248.0,700.0,29.38857143,"solid state reaction, Ar"
Ca2.97Na0.03AlSb3,0.0172,287.5,1000.0,29.38857143,"solid state reaction, Ar"
Ca2.94Na0.06AlSb3,0.0589,81.5,300.0,29.38857143,"solid state reaction, Ar"
Ca2.94Na0.06AlSb3,0.0337,150.0,400.0,29.38857143,"solid state reaction, Ar"
Ca2.94Na0.06AlSb3,0.0138,233.0,700.0,29.38857143,"solid state reaction, Ar"
Ca2.94Na0.06AlSb3,0.0134,262.0,1000.0,29.38857143,"solid state reaction, Ar"
Ca2.85Na0.15AlSb3,0.0275,112.6,300.0,29.38857143,"solid state reaction, Ar"
Ca2.85Na0.15AlSb3,0.0187,152.0,400.0,29.38857143,"solid state reaction, Ar"
Ca2.85Na0.15AlSb3,0.0122,215.0,700.0,29.38857143,"solid state reaction, Ar"
Ca2.85Na0.15AlSb3,0.0125,243.0,1000.0,29.38857143,"solid state reaction, Ar"
Fe0.998Co0.002Si2,0.0475,-191.0,300.0,12.53979167,"arc-melted, Ar"
Fe0.998Co0.002Si2,0.026000000000000002,-183.0,400.0,12.53979167,"arc-melted, Ar"
Fe0.998Co0.002Si2,0.0123,-180.6,700.0,12.53979167,"arc-melted, Ar"
Fe0.998Co0.002Si2,0.00605,-87.3,1000.0,12.53979167,"arc-melted, Ar"
Fe0.978Co0.00196Si1.96Y0.04O0.06,0.1275,-318.0,300.0,12.53979167,"arc-melted, Ar"
Fe0.978Co0.00196Si1.96Y0.04O0.06,0.0563,-327.0,400.0,12.53979167,"arc-melted, Ar"
Fe0.978Co0.00196Si1.96Y0.04O0.06,0.024,-287.0,700.0,12.53979167,"arc-melted, Ar"
Fe0.978Co0.00196Si1.96Y0.04O0.06,0.0122,-100.8,1000.0,12.53979167,"arc-melted, Ar"
Fe0.978Co0.00196Si1.96Y0.12O0.18,0.27,-226.0,300.0,12.53979167,"arc-melted, Ar"
Fe0.978Co0.00196Si1.96Y0.12O0.18,0.1495,-227.0,400.0,12.53979167,"arc-melted, Ar"
Fe0.978Co0.00196Si1.96Y0.12O0.18,0.0518,-222.0,700.0,12.53979167,"arc-melted, Ar"
Fe0.978Co0.00196Si1.96Y0.12O0.18,0.0214,-68.0,1000.0,12.53979167,"arc-melted, Ar"
Ca5Al2Sb6,0.4571,470.0,300.0,29.64153846,"solid state reaction, Ar"
Ca5Al2Sb6,0.409,463.0,400.0,29.64153846,"solid state reaction, Ar"
Ca5Al2Sb6,0.2349,390.0,700.0,29.64153846,"solid state reaction, Ar"
Ca4.95Na0.05Al2Sb6,0.0332,193.0,300.0,29.64153846,"solid state reaction, Ar"
Ca4.95Na0.05Al2Sb6,0.0224,219.9,400.0,29.64153846,"solid state reaction, Ar"
Ca4.95Na0.05Al2Sb6,0.0181,261.7,700.0,29.64153846,"solid state reaction, Ar"
Ca4.75Na0.25Al2Sb6,0.00506,142.7,300.0,29.64153846,"solid state reaction, Ar"
Ca4.75Na0.25Al2Sb6,0.0054399999999999995,161.0,400.0,29.64153846,"solid state reaction, Ar"
Ca4.75Na0.25Al2Sb6,0.00733,200.8,700.0,29.64153846,"solid state reaction, Ar"
Ca4.75Na0.25Al2Sb6,0.00939,207.0,1000.0,29.64153846,"solid state reaction, Ar"
Fe1.98Ti0.02O3,0.887847148,-413.39,300.0,10.111,"solid state reaction, air"
Fe1.98Ti0.02O3,0.491905692,-402.83,400.0,10.111,"solid state reaction, air"
Fe1.98Ti0.02O3,0.179726815,-370.39,700.0,10.111,"solid state reaction, air"
Fe1.98Ti0.02O3,0.138108766,-371.87,1000.0,10.111,"solid state reaction, air"
Fe1.96Ti0.04O3,0.37639690299999995,-366.46,300.0,10.111,"solid state reaction, air"
Fe1.96Ti0.04O3,0.21392342,-343.86,400.0,10.111,"solid state reaction, air"
Fe1.96Ti0.04O3,0.09422584,-322.97,700.0,10.111,"solid state reaction, air"
Fe1.96Ti0.04O3,0.07209961299999999,-328.38,1000.0,10.111,"solid state reaction, air"
Fe1.94Ti0.06O3,0.41152094,-335.01,300.0,10.111,"solid state reaction, air"
Fe1.94Ti0.06O3,0.205898583,-308.72,400.0,10.111,"solid state reaction, air"
Fe1.94Ti0.06O3,0.075870807,-292.02,700.0,10.111,"solid state reaction, air"
Fe1.94Ti0.06O3,0.057563565,-294.72,1000.0,10.111,"solid state reaction, air"
Fe1.98Sn0.02O3,1.0,-427.64,300.0,10.10766667,"solid state reaction, air"
Fe1.98Sn0.02O3,0.515440005,-413.39,400.0,10.10766667,"solid state reaction, air"
Fe1.98Sn0.02O3,0.213016592,-373.83,700.0,10.10766667,"solid state reaction, air"
Fe1.98Sn0.02O3,0.162304991,-374.57,1000.0,10.10766667,"solid state reaction, air"
Fe1.96Sn0.04O3,0.46745791700000006,-364.5,300.0,10.10766667,"solid state reaction, air"
Fe1.96Sn0.04O3,0.263429643,-335.5,400.0,10.10766667,"solid state reaction, air"
Fe1.96Sn0.04O3,0.10748931800000001,-317.81,700.0,10.10766667,"solid state reaction, air"
Fe1.96Sn0.04O3,0.087288979,-323.46,1000.0,10.10766667,"solid state reaction, air"
Ba7SrAl16Si30,0.0005882390000000001,-26.52,300.0,21.69090909,"flux (Al), dynamic vacuum"
Ba7SrAl16Si30,0.0006603310000000001,-33.75,400.0,21.69090909,"flux (Al), dynamic vacuum"
Ba7SrAl16Si30,0.00087797,-53.15,700.0,21.69090909,"flux (Al), dynamic vacuum"
Ba7SrAl16Si30,0.0011173,-79.05,1000.0,21.69090909,"flux (Al), dynamic vacuum"
Nd2CuO4,2.91889,-752.2,300.0,13.52,"solid state reaction, air"
Nd2CuO4,2.1616400000000002,-618.43,400.0,13.52,"solid state reaction, air"
Nd2CuO4,0.0243757,-99.7,700.0,13.52,"solid state reaction, air"
Nd2CuO4,0.00158489,26.27,1000.0,13.52,"solid state reaction, air"
Nd2Cu0.98Ni0.02O4,0.0594173,-249.39,300.0,13.52,"solid state reaction, air"
Nd2Cu0.98Ni0.02O4,0.038248000000000004,-182.68,400.0,13.52,"solid state reaction, air"
Nd2Cu0.98Ni0.02O4,0.0216164,-98.5,700.0,13.52,"solid state reaction, air"
Nd2Cu0.98Ni0.02O4,0.0229546,-82.67,1000.0,13.52,"solid state reaction, air"
Nd2Cu0.98Zn0.02O4,0.18978499999999998,-343.22,300.0,13.52,"solid state reaction, air"
Nd2Cu0.98Zn0.02O4,0.140548,-294.38,400.0,13.52,"solid state reaction, air"
Nd2Cu0.98Zn0.02O4,0.0763148,-175.63,700.0,13.52,"solid state reaction, air"
Nd2Cu0.98Zn0.02O4,0.0371163,-63.68,1000.0,13.52,"solid state reaction, air"
La3Te3.8Sb0.2,0.00053,-45.0,300.0,31.895,"solid state reaction, Ar"
La3Te3.8Sb0.2,0.000589,-46.6,400.0,31.895,"solid state reaction, Ar"
La3Te3.8Sb0.2,0.000802,-67.6,700.0,31.895,"solid state reaction, Ar"
La3Te3.8Sb0.2,0.00103,-87.8,1000.0,31.895,"solid state reaction, Ar"
La3Te3.65Sb0.35,0.0011,-53.0,300.0,31.895,"solid state reaction, Ar"
La3Te3.65Sb0.35,0.00137,-58.0,400.0,31.895,"solid state reaction, Ar"
La3Te3.65Sb0.35,0.00187,-87.2,700.0,31.895,"solid state reaction, Ar"
La3Te3.65Sb0.35,0.00225,-117.3,1000.0,31.895,"solid state reaction, Ar"
La3Te3.35Sb0.65,0.018000000000000002,-91.0,300.0,31.895,"solid state reaction, Ar"
La3Te3.35Sb0.65,0.00135,-89.9,400.0,31.895,"solid state reaction, Ar"