Formula,Resist,Seebeck,T (K),average atomic volume,preparative route
La3Te3.35Sb0.65,0.007209999999999999,-159.3,700.0,31.895,"solid state reaction, Ar"
La3Te3.35Sb0.65,0.00687,-221.2,1000.0,31.895,"solid state reaction, Ar"
La3Te3.35Bi0.65,0.0071,-71.0,300.0,31.895,"solid state reaction, Ar"
La3Te3.35Bi0.65,0.00535,-69.5,400.0,31.895,"solid state reaction, Ar"
La3Te3.35Bi0.65,0.004370000000000001,-130.6,700.0,31.895,"solid state reaction, Ar"
La3Te3.35Bi0.65,0.00527,-185.2,1000.0,31.895,"solid state reaction, Ar"
La2.99Te4,0.00061,-40.87,300.0,31.895,"solid state reaction, Ar"
La2.99Te4,0.00061,-41.6,400.0,31.895,"solid state reaction, Ar"
La2.99Te4,0.000802,-57.6,700.0,31.895,"solid state reaction, Ar"
La2.99Te4,0.000974,-74.7,1000.0,31.895,"solid state reaction, Ar"
La2.74Te4,0.0027,-41.0,300.0,31.895,"solid state reaction, Ar"
La2.74Te4,0.00268,-89.0,400.0,31.895,"solid state reaction, Ar"
La2.74Te4,0.00425,-159.0,700.0,31.895,"solid state reaction, Ar"
La2.74Te4,0.00639,-215.0,1000.0,31.895,"solid state reaction, Ar"
Zn0.9975Al0.0025O,0.296735905,-210.0,300.0,11.905,"microwave solvothermal, air"
Zn0.9975Al0.0025O,0.19455252899999997,-220.0,400.0,11.905,"microwave solvothermal, air"
Zn0.9975Al0.0025O,0.065316786,-268.0,700.0,11.905,"microwave solvothermal, air"
Zn0.9975Al0.0025O,0.012271444,-316.0,1000.0,11.905,"microwave solvothermal, air"
Sr0.61Ba0.39Nb2O6,0.00282598,-92.4,300.0,13.56444444,"Czochralski method, anneal PO<sub>2</sub> 10<sup>-14</sup>"
Sr0.61Ba0.39Nb2O6,0.10502047,-186.0,300.0,13.56444444,"Czochralski method, anneal PO<sub>2</sub> 10<sup>-14</sup>"
Sr0.61Ba0.39Nb2O6,0.014613639,-194.0,400.0,13.56444444,"Czochralski method, anneal PO<sub>2</sub> 10<sup>-14</sup>"
Sr0.61Ba0.39Nb2O6,0.0014,-201.0,700.0,13.56444444,"Czochralski method, anneal PO<sub>2</sub> 10<sup>-14</sup>"
Sr0.61Ba0.39Nb2O6,0.061881188,-220.0,300.0,13.56444444,"templated grain growth, air, anneal PO<sub>2</sub> 10<sup>-14</sup>"
Sr0.61Ba0.39Nb2O6,0.016225864,-220.0,400.0,13.56444444,"templated grain growth, air, anneal PO<sub>2</sub> 10<sup>-14</sup>"
Sr0.61Ba0.39Nb2O6,0.008,-216.0,700.0,13.56444444,"templated grain growth, air, anneal PO<sub>2</sub> 10<sup>-14</sup>"
Sr4.5Nb4.5O15.5,0.00114,-19.0,300.0,14.15365385,"floating zone method, Ar"
Sr1.6La0.4Nb2O7,0.005,-107.0,300.0,13.57636364,"floating zone method, Ar"
Si0.8Ge0.2,0.001178241,120.75,300.0,21.2225,"ball milling, hot-pressed nanopowders"
Si0.8Ge0.2,0.001291918,138.43,400.0,21.2225,"ball milling, hot-pressed nanopowders"
Si0.8Ge0.2,0.001787074,191.49,700.0,21.2225,"ball milling, hot-pressed nanopowders"
Si0.8Ge0.2,0.002484145,231.64,1000.0,21.2225,"ball milling, hot-pressed nanopowders"
Pb0.96Sr0.4TeNa0.2,0.000678887,81.0,300.0,33.73,sparks plasma sintering
Pb0.96Sr0.4TeNa0.2,0.000844595,128.0,400.0,33.73,sparks plasma sintering
Pb0.96Sr0.4TeNa0.2,0.002123142,239.0,700.0,33.73,sparks plasma sintering
Pb0.96Sr0.4TeNa0.2,0.0031545740000000003,265.0,1000.0,33.73,sparks plasma sintering
Pb0.98Sr0.2TeNa0.1,0.0004095,68.0,300.0,33.73,melting
Pb0.98Sr0.2TeNa0.1,0.0007067139999999999,117.0,400.0,33.73,melting
Pb0.98Sr0.2TeNa0.1,0.003012048,263.0,700.0,33.73,melting
Pb0.98TeNa0.2,0.00041684,64.0,300.0,33.73,melting
Pb0.98TeNa0.2,0.000576037,105.0,400.0,33.73,melting
Pb0.98TeNa0.2,0.002252252,236.0,700.0,33.73,melting
W08,0.003901983,-43.647359,300.0,,SPS
W08,0.004308941,-58.451946,400.0,,SPS
W08,0.005641709,-98.148999,700.0,,SPS
W08,0.007142314,-130.77098999999998,1000.0,,SPS
Ca0.98La0.02MnO3,0.046114999999999996,-201.71,400.0,10.387,Solid state reaction
Ca0.96La0.04MnO3,0.015256,-123.59,400.0,10.4245,Solid state reaction
Ca0.94La0.06MnO3,0.012167,-103.74,400.0,10.462,Solid state reaction
Ca0.92La0.08MnO3,0.009966,-83.24,400.0,10.4965,Solid state reaction
Li0.0024Ni0.9976O,28.867694,294.97,400.0,9.11625,Solid state reaction
Li0.0066Ni0.9944O,5.086469999999999,249.37,400.0,9.11625,Solid state reaction
Li0.0184Ni0.9816O,0.064272,116.91,400.0,9.11625,Solid state reaction
Li0.0242Ni0.9758O,0.012343000000000002,102.59,400.0,9.11625,Solid state reaction
CaMnO3,2.925075,-549.12,400.0,10.3485,Solid state reaction
Ca0.98Bi0.02Mn0.98Nb0.02O3,0.021537,-119.21,400.0,10.3485,Solid state reaction
Ca0.96Bi0.04Mn0.96Nb0.04O3,0.009824,-114.15,400.0,10.3485,Solid state reaction
Ca0.9Bi0.1Mn0.9Nb0.1O3,0.009824,-114.15,400.0,10.3485,Solid state reaction
Ca0.9Bi0.1Mn0.9Nb0.1O3,0.007258,-72.44,400.0,10.3485,Solid state reaction
CaMn0.98Nb0.02O3,0.021541,-203.88,400.0,10.4105,Ultrasonic Spray Pyrolysis
CaMn0.98Ru0.02O3,0.018369999999999997,-153.66,400.0,10.4105,Solid state reaction
CaMn0.98Ru0.02O3,0.018366,-153.66,400.0,10.4105,Solid state reaction
CaMn0.96Ru0.04O3,0.007520999999999999,-119.99,400.0,10.4105,Solid state reaction
CaMn0.94Ru0.06O3,0.006601999999999999,-101.6,400.0,10.4105,Solid state reaction
CaMn0.9Ru0.1O3,0.003956,-60.57,400.0,10.517999999999999,Solid state reaction
CaMn0.82Ru0.18O3,0.003105,-35.67,400.0,10.517999999999999,Solid state reaction
CaGd0.98Mn0.02O3,0.027541000000000003,-215.39,400.0,10.517999999999999,Co-precipitation
CaGd0.96Mn0.04O3,0.012874000000000002,-163.53,400.0,10.517999999999999,Co-precipitation
Nd1.4Bi0.6Ru2O7,0.0011769999999999999,23.09,400.0,12.53022727,Solid state reaction
NdBiRu2O7,0.001759,21.17,400.0,12.48545455,Solid state reaction
Yb1.4Bi0.6Ru2O7,0.003218,17.72,400.0,12.48545455,Solid state reaction
YbBiRu2O7,0.001693,19.3,400.0,12.48545455,Solid state reaction
Nd2Ru2O7,2.0,40.0,400.0,12.54875,solid state reaction
Ca0.9Nd0.1MnO3,0.119152,-90.28,400.0,10.5465,Solid state reaction
Ca0.9Tb0.1MnO3,0.107849,-90.28,400.0,10.450999999999999,Solid state reaction
Ca0.9Ho0.1MnO3,0.07064400000000001,-90.28,400.0,10.422,Solid state reaction
Ca0.9Yb0.1MnO3,0.040973,-90.28,400.0,10.376,Solid state reaction
Ba0.6Sr0.4PbO3,0.00127204,-51.37,400.0,15.902000000000001,Solid state reaction (under oxygen)
Ba0.4Sr0.6PbO3,0.00395079,-96.44,400.0,15.902000000000001,Solid state reaction (under oxygen)
LaNiO3,0.002843,-19.88,400.0,11.31433333,"Evaporate nitrates (1173 K, air)"
La0.9Bi0.1NiO3,0.002673,-20.95,400.0,11.31433333,"Evaporate nitrates (1173 K, air)"
Ca0.96Sm0.04MnO3,0.006037,-139.46,400.0,10.5195,Co-precipitation
Bi2Te3,0.00055,162.0,400.0,33.94733333,melted
Bi2Te3,0.00045,-174.0,400.0,33.94733333,melted
Sb2Te3,0.00018999999999999998,38.0,400.0,31.97266667,melted
Sb2Te3,0.00011999999999999999,63.0,400.0,31.97266667,melted
Ag0.15Sb0.15Te1.15Ge0.85,0.00085,122.16,400.0,31.97266667,melted
In0.3Co4Sb12,-247.31,-0.00635,400.0,22.78802735,Solid state reaction
In0.3Co4Sb12,-247.31,-0.00742,400.0,22.78802735,Solid state reaction
In0.3Co4Sb12,-247.31,-0.00835,400.0,22.78802735,Solid state reaction
In0.2Co4Sb12,0.0011300000000000001,-192.21,400.0,22.92413751,Solid state reaction
Na0.02PbTe,0.00057,105.0,400.0,33.73,melted
Na0.02PbTe0.85Se0.15,0.00062,98.33,400.0,33.73,melted
Na0.02PbTe0.75Se0.25,0.0006900000000000001,89.76,400.0,33.73,melted
Tl0.01Pb0.99Te,0.00355,197.87,400.0,33.73,melted
Tl0.02Pb0.98Te,0.0029100000000000003,195.21,400.0,33.73,melted
Si0.8Ge0.2,0.0017100000000000001,161.0,400.0,21.2225,
Si0.7956Ge0.1989P0.0055,0.00133537,150.045,400.0,21.2225,Vacuum hot pressed
Bi2Sr2Co2O8,0.00238,119.75,400.0,13.59035714,Solid state reaction + extra
K2Bi8Se13,0.03246,-196.16,400.0,29.51804348,Solid state reaction + extra
K2Bi8Se13,0.004159,-219.62,400.0,29.51804348,Flux (Bi self-flux)
Ca2Co2O5,0.001467,142.36,400.0,10.88305709,melted
ZnO,181.543206,-500.55,400.0,11.905,Solid state reaction
Al0.02Zn0.98O,105.6963524,-289.98,400.0,11.905,Solid state reaction
Ni0.02Zn0.98O,145.04741719999998,-206.81,400.0,11.905,Solid state reaction
Zn0.9604Al0.0196Ni0.02O,40.25408877,-362.53,400.0,11.905,Solid state reaction
WO2.9,0.00119,-31.41,400.0,13.3275,Spark Plasma Sintering
WO2.722,0.0001,-25.21,400.0,12.26791667,Spark Plasma Sintering